 Gaussian 16, Revision A.03,
 Gaussian 16:  ES64L-G16RevA.03 25-Dec-2016

 ----------------------------------------------------------------------
 #p b3lyp empiricaldispersion=gd3bj midix scrf=(pcm,solvent=1,4-dioxane
 ) opt=modredundant freq=noraman
 ----------------------------------------------------------------------

 -----------
 Diels Alder
 -----------
 Symbolic Z-matrix:
 Charge =  0 Multiplicity = 1

 SCF Done:  E(RB3LYP) =  -662.776240506     A.U. after   15 cycles
 SCF Done:  E(RB3LYP) =  -662.925757133     A.U. after   13 cycles
 SCF Done:  E(RB3LYP) =  -663.072820370     A.U. after   15 cycles
 SCF Done:  E(RB3LYP) =  -663.097549258     A.U. after   14 cycles
 SCF Done:  E(RB3LYP) =  -663.148090808     A.U. after   14 cycles
 SCF Done:  E(RB3LYP) =  -663.177077163     A.U. after   14 cycles
 SCF Done:  E(RB3LYP) =  -663.190853148     A.U. after   13 cycles
 SCF Done:  E(RB3LYP) =  -663.202340791     A.U. after   14 cycles
 SCF Done:  E(RB3LYP) =  -663.212083068     A.U. after   14 cycles
 SCF Done:  E(RB3LYP) =  -663.227377910     A.U. after   13 cycles
 SCF Done:  E(RB3LYP) =  -663.252255115     A.U. after   10 cycles
 SCF Done:  E(RB3LYP) =  -663.252272414     A.U. after   10 cycles
 SCF Done:  E(RB3LYP) =  -663.252277366     A.U. after   10 cycles
 SCF Done:  E(RB3LYP) =  -663.252281440     A.U. after   10 cycles
 SCF Done:  E(RB3LYP) =  -663.252284545     A.U. after    9 cycles
 SCF Done:  E(RB3LYP) =  -663.252284892     A.U. after    8 cycles
 SCF Done:  E(RB3LYP) =  -663.252285001     A.U. after    7 cycles
 SCF Done:  E(RB3LYP) =  -663.252285137     A.U. after    8 cycles
 SCF Done:  E(RB3LYP) =  -663.252285196     A.U. after    8 cycles
 Optimization completed.
    -- Stationary point found.
 Normal termination of Gaussian 16 at Mon Nov 13 17:37:36 2017.

 -----------------------------------------------------------------
 #P Geom=AllCheck Guess=TCheck SCRF=Check GenChk RB3LYP/MIDIx Freq
 -----------------------------------------------------------------

 Structure from the checkpoint file:  "/scratch/dhuang9_da_meta_endo_b3lyp_d3bj_midix_freeze/Gau-52563.chk"
 -----------
 Diels Alder
 -----------
 Charge =  0 Multiplicity = 1

                         Standard orientation:
 ---------------------------------------------------------------------
 Center     Atomic      Atomic             Coordinates (Angstroms)
 Number     Number       Type             X           Y           Z
 ---------------------------------------------------------------------
      1          6           0       -0.953346   -0.746682    0.390596
      2          1           0       -0.783981    0.142402    0.983119
      3          6           0        0.029642   -1.558820    0.003038
      4          1           0       -0.188831   -2.410586   -0.642591
      5          6           0        1.496341   -1.403329    0.295488
      6          1           0        1.842570   -2.298195    0.837575
      7          6           0        1.930436   -0.141804    1.169526
      8          1           0        1.109172    0.219449    1.786258
      9          1           0        2.685079   -0.541259    1.876611
     10          7           0       -2.306994   -0.918911    0.066523
     11          1           0       -2.608793   -1.778294   -0.401064
     12          6           0       -3.219988    0.115511    0.004720
     13          8           0       -4.379343    0.003570   -0.358177
     14          8           0       -2.647243    1.302774    0.415162
     15          1           0       -3.399622    1.951461    0.379418
     16          6           0        0.639312    1.476158   -1.111815
     17          1           0        1.044711    0.946309   -1.971472
     18          1           0       -0.383472    1.844417   -1.177712
     19          6           0        1.307581    1.518500    0.044607
     20          1           0        0.859517    2.033361    0.894754
     21          6           0        2.537237    0.850045    0.292639
     22          8           0        2.132764   -1.357270   -1.007350
     23          1           0        3.106015   -1.285953   -0.819448
     24          8           0        3.676735    0.919900   -0.142625
 ---------------------------------------------------------------------

 SCF Done:  E(RB3LYP) =  -663.252285196     A.U. after    1 cycles

 The electronic state is 1-A.
 Alpha  occ. eigenvalues --  -19.07767 -19.02677 -19.02580 -19.00768 -14.29077
 Alpha  occ. eigenvalues --  -10.28126 -10.20951 -10.19448 -10.16922 -10.12844
 Alpha  occ. eigenvalues --  -10.12503 -10.12265 -10.11879  -1.10693  -1.04932
 Alpha  occ. eigenvalues --   -1.01611  -1.01451  -0.95109  -0.84711  -0.79266
 Alpha  occ. eigenvalues --   -0.75111  -0.68777  -0.63878  -0.62987  -0.57748
 Alpha  occ. eigenvalues --   -0.54692  -0.53318  -0.50975  -0.49584  -0.48047
 Alpha  occ. eigenvalues --   -0.47481  -0.46743  -0.45803  -0.45089  -0.43395
 Alpha  occ. eigenvalues --   -0.42657  -0.41002  -0.38576  -0.37759  -0.37407
 Alpha  occ. eigenvalues --   -0.35346  -0.34719  -0.33145  -0.30970  -0.27674
 Alpha  occ. eigenvalues --   -0.26844  -0.26648  -0.24213  -0.22026
 Alpha virt. eigenvalues --   -0.03292   0.00357   0.03009   0.06181   0.06710
 Alpha virt. eigenvalues --    0.08217   0.09650   0.10741   0.12202   0.14447
 Alpha virt. eigenvalues --    0.15009   0.16224   0.18465   0.19208   0.19393

 Mulliken charges:
               1
     1  C    0.138337
     2  H    0.180069
     3  C   -0.196548
     4  H    0.161087
     5  C    0.167322
     6  H    0.170653
     7  C   -0.466896
     8  H    0.203312
     9  H    0.172718
    10  N   -0.768289
    11  H    0.326746
    12  C    1.037783
    13  O   -0.593275
    14  O   -0.624372
    15  H    0.391277
    16  C   -0.245351
    17  H    0.170301
    18  H    0.155731
    19  C   -0.249358
    20  H    0.194561
    21  C    0.471638
    22  O   -0.623644
    23  H    0.360328
    24  O   -0.534130
 Sum of Mulliken charges =   0.00000

 Dipole moment (field-independent basis, Debye):
    X=             -1.1455    Y=             -0.7054    Z=              2.2609  Tot=              2.6309
 Quadrupole moment (field-independent basis, Debye-Ang):
   XX=            -92.4027   YY=            -69.3250   ZZ=            -74.8822
   XY=             -8.9367   XZ=              2.0738   YZ=              2.4266

  Exact polarizability: 149.873 -19.353  95.488   9.433   2.492  81.946
 Approx polarizability: 203.701 -26.529 124.589  13.205   7.792 122.070

 ******    2 imaginary frequencies (negative Signs) ******

                      1                      2                      3
                      A                      A                      A
 Frequencies --   -117.8787               -67.0700                62.1011
 Red. masses --      3.9163                 4.9484                 6.9266
 Frc consts  --      0.0321                 0.0131                 0.0157
 IR Inten    --      0.3964                 3.2554                 7.3466

                      4                      5                      6
                      A                      A                      A
 Frequencies --     76.6538                99.1461               131.4233
 Red. masses --      7.8782                 5.0324                 2.8757
 Frc consts  --      0.0273                 0.0291                 0.0293
 IR Inten    --      2.0783                 1.5362                 2.4864

                      7                      8                      9
                      A                      A                      A
 Frequencies --    134.4971               187.6109               218.1440
 Red. masses --      3.7933                 5.3230                 5.5672
 Frc consts  --      0.0404                 0.1104                 0.1561
 IR Inten    --      1.0202                 1.8737                 6.4608

                     10                     11                     12
                      A                      A                      A
 Frequencies --    258.1161               287.2060               348.9062
 Red. masses --      3.2155                 3.6470                 4.5943
 Frc consts  --      0.1262                 0.1772                 0.3295
 IR Inten    --      2.5235                 5.1348                 1.5110

                     13                     14                     15
                      A                      A                      A
 Frequencies --    402.5567               429.4308               445.5690
 Red. masses --      3.0916                 2.2620                 1.8323
 Frc consts  --      0.2952                 0.2458                 0.2143
 IR Inten    --     46.2481                35.5563                84.8447

                     16                     17                     18
                      A                      A                      A
 Frequencies --    479.8804               503.7071               518.3101
 Red. masses --      2.4169                 1.2299                 1.7884
 Frc consts  --      0.3279                 0.1838                 0.2831
 IR Inten    --     10.2380                24.5607                 7.8222

                     19                     20                     21
                      A                      A                      A
 Frequencies --    562.8882               568.7412               610.2316
 Red. masses --      4.4489                 1.3432                 2.3920
 Frc consts  --      0.8305                 0.2560                 0.5248
 IR Inten    --     39.8577               109.8631                84.9045

                     22                     23                     24
                      A                      A                      A
 Frequencies --    639.8788               724.2830               727.3055
 Red. masses --      3.6452                10.8663                 3.2055
 Frc consts  --      0.8794                 3.3585                 0.9990
 IR Inten    --      4.1593                45.2535                28.1558

                     25                     26                     27
                      A                      A                      A
 Frequencies --    787.4289               819.7569               877.3723
 Red. masses --      3.0172                 3.4706                 1.9093
 Frc consts  --      1.1023                 1.3741                 0.8659
 IR Inten    --      2.5748                10.7726                13.0600

                     28                     29                     30
                      A                      A                      A
 Frequencies --    936.8031               944.3861               979.7167
 Red. masses --      4.0113                 2.8873                 1.5313
 Frc consts  --      2.0741                 1.5172                 0.8660
 IR Inten    --     16.4246                 9.9123                70.2114

                     31                     32                     33
                      A                      A                      A
 Frequencies --    990.2529              1006.1970              1040.0178
 Red. masses --      1.8549                 1.1632                 2.6595
 Frc consts  --      1.0717                 0.6939                 1.6949
 IR Inten    --     65.2534                56.5116                19.6837

                     34                     35                     36
                      A                      A                      A
 Frequencies --   1063.1626              1071.9810              1133.5491
 Red. masses --      1.5475                 2.2483                 1.5541
 Frc consts  --      1.0306                 1.5222                 1.1765
 IR Inten    --     43.4622                67.0105                21.7360

                     37                     38                     39
                      A                      A                      A
 Frequencies --   1150.9703              1202.5598              1233.2711
 Red. masses --      1.7966                 1.6865                 3.0460
 Frc consts  --      1.4023                 1.4370                 2.7296
 IR Inten    --     15.0737               387.0954                85.8265

                     40                     41                     42
                      A                      A                      A
 Frequencies --   1272.3251              1297.2461              1307.9515
 Red. masses --      1.1559                 1.3775                 1.2625
 Frc consts  --      1.1024                 1.3658                 1.2725
 IR Inten    --     50.6129                97.4155                39.6211

                     43                     44                     45
                      A                      A                      A
 Frequencies --   1329.4294              1369.7508              1375.2051
 Red. masses --      1.3132                 1.2285                 1.2483
 Frc consts  --      1.3675                 1.3580                 1.3910
 IR Inten    --     20.8658                 7.1184                 2.3525

                     46                     47                     48
                      A                      A                      A
 Frequencies --   1402.1445              1431.6967              1456.3129
 Red. masses --      1.4103                 2.3182                 1.5659
 Frc consts  --      1.6336                 2.7996                 1.9566
 IR Inten    --     14.9434               190.9610                51.8861

                     49                     50                     51
                      A                      A                      A
 Frequencies --   1480.9957              1511.2945              1574.4325
 Red. masses --      1.6934                 1.2478                 1.1191
 Frc consts  --      2.1883                 1.6792                 1.6344
 IR Inten    --     21.7058                12.8678                31.1266

                     52                     53                     54
                      A                      A                      A
 Frequencies --   1702.9071              1762.9815              1838.6457
 Red. masses --      4.5537                 5.4544                 7.9793
 Frc consts  --      7.7803                 9.9884                15.8931
 IR Inten    --      4.5315               171.5164               760.2025

                     55                     56                     57
                      A                      A                      A
 Frequencies --   1862.8270              2938.1382              2980.1632
 Red. masses --     10.9708                 1.0747                 1.0832
 Frc consts  --     22.4302                 5.4663                 5.6681
 IR Inten    --    184.2951                33.2642                94.9077

                     58                     59                     60
                      A                      A                      A
 Frequencies --   3137.5435              3150.9146              3151.5416
 Red. masses --      1.0819                 1.0635                 1.0881
 Frc consts  --      6.2751                 6.2208                 6.3677
 IR Inten    --      4.0079                 4.7144                12.7917

                     61                     62                     63
                      A                      A                      A
 Frequencies --   3163.6630              3237.7110              3261.1512
 Red. masses --      1.0841                 1.1155                 1.0894
 Frc consts  --      6.3929                 6.8899                 6.8259
 IR Inten    --      5.8091                 2.7139                 6.5740

                     64                     65                     66
                      A                      A                      A
 Frequencies --   3471.0353              3509.2400              3537.0852
 Red. masses --      1.0763                 1.0656                 1.0645
 Frc consts  --      7.6398                 7.7320                 7.8463
 IR Inten    --     49.3498                15.4693               113.0268

 - Thermochemistry -
 -------------------
 Temperature   298.150 Kelvin.  Pressure   1.00000 Atm.
 Atom     1 has atomic number  6 and mass  12.00000

 Molecular mass:   185.06881 amu.
 Principal axes and moments of inertia in atomic units:
                           1         2         3
     Eigenvalues --  1091.028874311.524344884.48432
           X            0.99994  -0.01000   0.00405
           Y            0.01001   0.99994  -0.00377
           Z           -0.00402   0.00381   0.99998
 This molecule is an asymmetric top.
 Rotational symmetry number  1.
 Warning -- assumption of classical behavior for rotation
           may cause significant error
 Rotational temperatures (Kelvin)      0.07939     0.02009     0.01773
 Rotational constants (GHZ):           1.65416     0.41859     0.36948
    2 imaginary frequencies ignored.
 Zero-point vibrational energy     497457.2 (Joules/Mol)
                                  118.89512 (Kcal/Mol)
 Warning -- explicit consideration of  19 degrees of freedom as
           vibrations may cause significant error
 Vibrational temperatures:     89.35   110.29   142.65   189.09   193.51
          (Kelvin)            269.93   313.86   371.37   413.23   502.00
                              579.19   617.86   641.07   690.44   724.72
                              745.73   809.87   818.29   877.99   920.64
                             1042.08  1046.43  1132.93  1179.45  1262.34
                             1347.85  1358.76  1409.59  1424.75  1447.69
                             1496.35  1529.65  1542.34  1630.92  1655.99
                             1730.22  1774.40  1830.59  1866.45  1881.85
                             1912.75  1970.77  1978.61  2017.37  2059.89
                             2095.31  2130.82  2174.42  2265.26  2450.10
                             2536.54  2645.40  2680.19  4227.33  4287.79
                             4514.23  4533.46  4534.37  4551.81  4658.34
                             4692.07  4994.05  5049.01  5089.08

 Zero-point correction=                           0.189471 (Hartree/Particle)
 Thermal correction to Energy=                    0.201434
 Thermal correction to Enthalpy=                  0.202378
 Thermal correction to Gibbs Free Energy=         0.151067
 Sum of electronic and zero-point Energies=           -663.062814
 Sum of electronic and thermal Energies=              -663.050851
 Sum of electronic and thermal Enthalpies=            -663.049907
 Sum of electronic and thermal Free Energies=         -663.101218

                     E (Thermal)             CV                S
                      KCal/Mol        Cal/Mol-Kelvin    Cal/Mol-Kelvin
 Total                  126.402             45.236            107.994
 Electronic               0.000              0.000              0.000
 Translational            0.889              2.981             41.553
 Rotational               0.889              2.981             31.508
 Vibrational            124.624             39.274             34.933
 Vibration     1          0.597              1.972              4.389
 Vibration     2          0.599              1.965              3.975
 Vibration     3          0.604              1.950              3.471
 Vibration     4          0.612              1.922              2.925
 Vibration     5          0.613              1.919              2.881
 Vibration     6          0.632              1.857              2.251
 Vibration     7          0.646              1.813              1.974
 Vibration     8          0.667              1.749              1.674
 Vibration     9          0.684              1.697              1.490
 Vibration    10          0.726              1.577              1.171
 Vibration    11          0.768              1.465              0.953
 Vibration    12          0.791              1.406              0.861
 Vibration    13          0.805              1.371              0.809
 Vibration    14          0.836              1.295              0.710
 Vibration    15          0.859              1.242              0.649
 Vibration    16          0.873              1.209              0.614
 Vibration    17          0.919              1.112              0.518
 Vibration    18          0.925              1.099              0.507
 Vibration    19          0.969              1.010              0.432

 Optimization completed.
    -- Stationary point found.
 Normal termination of Gaussian 16 at Mon Nov 13 18:09:42 2017.
