 Gaussian 16, Revision A.03,
 Gaussian 16:  ES64L-G16RevA.03 25-Dec-2016

 ----------------------------------------------------------------------
 #p b3lyp empiricaldispersion=gd3bj midix scrf=(pcm,solvent=1,4-dioxane
 ) opt=modredundant freq=noraman
 ----------------------------------------------------------------------

 -----------
 Diels Alder
 -----------
 Symbolic Z-matrix:
 Charge =  0 Multiplicity = 1

 SCF Done:  E(RB3LYP) =  -662.717426076     A.U. after   16 cycles
 SCF Done:  E(RB3LYP) =  -662.922340143     A.U. after   16 cycles
 SCF Done:  E(RB3LYP) =  -663.040006880     A.U. after   15 cycles
 SCF Done:  E(RB3LYP) =  -663.163300584     A.U. after   13 cycles
 SCF Done:  E(RB3LYP) =  -663.176709195     A.U. after   14 cycles
 SCF Done:  E(RB3LYP) =  -663.238367574     A.U. after   14 cycles
 SCF Done:  E(RB3LYP) =  -663.259772348     A.U. after   12 cycles
 SCF Done:  E(RB3LYP) =  -663.277610661     A.U. after   14 cycles
 SCF Done:  E(RB3LYP) =  -663.288324851     A.U. after   14 cycles
 SCF Done:  E(RB3LYP) =  -663.296020237     A.U. after   14 cycles
 SCF Done:  E(RB3LYP) =  -663.321335109     A.U. after    9 cycles
 SCF Done:  E(RB3LYP) =  -663.321337612     A.U. after    8 cycles
 SCF Done:  E(RB3LYP) =  -663.321338828     A.U. after    8 cycles
 SCF Done:  E(RB3LYP) =  -663.321339070     A.U. after    8 cycles
 SCF Done:  E(RB3LYP) =  -663.321339174     A.U. after    8 cycles
 SCF Done:  E(RB3LYP) =  -663.321339500     A.U. after    8 cycles
 SCF Done:  E(RB3LYP) =  -663.321339799     A.U. after    8 cycles
 SCF Done:  E(RB3LYP) =  -663.321339970     A.U. after    7 cycles
 SCF Done:  E(RB3LYP) =  -663.321340135     A.U. after    7 cycles
 Optimization completed.
    -- Stationary point found.
 Normal termination of Gaussian 16 at Mon Nov 13 20:10:48 2017.

 -----------------------------------------------------------------
 #P Geom=AllCheck Guess=TCheck SCRF=Check GenChk RB3LYP/MIDIx Freq
 -----------------------------------------------------------------

 Structure from the checkpoint file:  "/scratch/dhuang9_da_ortho_endo_b3lyp_d3bj_midix_freeze/Gau-151144.chk"
 -----------
 Diels Alder
 -----------
 Charge =  0 Multiplicity = 1

                         Standard orientation:
 ---------------------------------------------------------------------
 Center     Atomic      Atomic             Coordinates (Angstroms)
 Number     Number       Type             X           Y           Z
 ---------------------------------------------------------------------
      1          6           0        0.100004    1.253476   -0.359972
      2          1           0        0.019753    1.481698    0.695435
      3          6           0       -0.973914    1.251386   -1.178472
      4          1           0       -0.830280    1.021890   -2.234436
      5          6           0       -2.337557    1.440704   -0.728806
      6          1           0       -3.097476    1.319762   -1.502090
      7          6           0       -2.751507    1.665359    0.534381
      8          1           0       -2.059203    1.849718    1.352876
      9          1           0       -3.809910    1.749496    0.771373
     10          7           0        1.404283    0.988406   -0.761883
     11          1           0        1.570571    0.713068   -1.734588
     12          6           0        2.408180    0.567312    0.101009
     13          8           0        3.504185    0.177226   -0.256329
     14          8           0        2.021691    0.706609    1.416083
     15          1           0        2.815766    0.396392    1.927313
     16          6           0       -0.809316   -1.084460    1.112213
     17          1           0       -0.048886   -0.706247    1.787912
     18          6           0       -2.121934   -0.912192    1.309549
     19          1           0       -2.512307   -0.360550    2.159344
     20          1           0       -2.851279   -1.299614    0.603993
     21          6           0       -0.250169   -1.730346   -0.087217
     22          8           0        0.946380   -1.849489   -0.331186
     23          8           0       -1.212845   -2.185899   -0.954584
     24          1           0       -0.684739   -2.579460   -1.701935
 ---------------------------------------------------------------------

 SCF Done:  E(RB3LYP) =  -663.321340135     A.U. after    1 cycles

 The electronic state is 1-A.
 Alpha  occ. eigenvalues --  -19.07407 -19.06144 -19.00746 -19.00357 -14.28934
 Alpha  occ. eigenvalues --  -10.27753 -10.24486 -10.16999 -10.13154 -10.12809
 Alpha  occ. eigenvalues --  -10.12556 -10.12133 -10.11542  -1.10340  -1.08795
 Alpha  occ. eigenvalues --   -1.01274  -1.00039  -0.95020  -0.81458  -0.79254
 Alpha  occ. eigenvalues --   -0.73744  -0.65063  -0.64427  -0.63254  -0.57048
 Alpha  occ. eigenvalues --   -0.55891  -0.53386  -0.49161  -0.48303  -0.47478
 Alpha  occ. eigenvalues --   -0.47179  -0.46043  -0.45802  -0.44331  -0.43423
 Alpha  occ. eigenvalues --   -0.42697  -0.40473  -0.38488  -0.37501  -0.37106
 Alpha  occ. eigenvalues --   -0.35879  -0.35474  -0.31511  -0.29971  -0.29513
 Alpha  occ. eigenvalues --   -0.27264  -0.26196  -0.25988  -0.20448
 Alpha virt. eigenvalues --   -0.02974  -0.02616   0.05811   0.06802   0.08068
 Alpha virt. eigenvalues --    0.08449   0.08973   0.10344   0.11441   0.12473
 Alpha virt. eigenvalues --    0.14711   0.15029   0.16829   0.18699   0.20312

 Mulliken charges:
               1
     1  C    0.152069
     2  H    0.191317
     3  C   -0.221631
     4  H    0.152362
     5  C   -0.172202
     6  H    0.160526
     7  C   -0.315871
     8  H    0.156439
     9  H    0.159389
    10  N   -0.764037
    11  H    0.324310
    12  C    1.051053
    13  O   -0.589674
    14  O   -0.624972
    15  H    0.392577
    16  C   -0.279034
    17  H    0.169354
    18  C   -0.243169
    19  H    0.171396
    20  H    0.178433
    21  C    0.794562
    22  O   -0.593547
    23  O   -0.617581
    24  H    0.367930
 Sum of Mulliken charges =   0.00000

 Dipole moment (field-independent basis, Debye):
    X=             -2.4084    Y=              0.5774    Z=              0.2403  Tot=              2.4882
 Quadrupole moment (field-independent basis, Debye-Ang):
   XX=            -80.7615   YY=            -78.6949   ZZ=            -63.4744
   XY=              2.6588   XZ=              4.1981   YZ=              3.6039

  Exact polarizability: 170.000 -18.615  78.159  -5.928   5.779 105.935
 Approx polarizability: 263.229 -32.351  97.592 -16.058  10.548 152.402

                      1                      2                      3
                      A                      A                      A
 Frequencies --     36.4726                58.5452                83.8391
 Red. masses --      5.3122                 7.9492                 4.9092
 Frc consts  --      0.0042                 0.0161                 0.0203
 IR Inten    --      0.5354                 0.8807                 0.1665

                      4                      5                      6
                      A                      A                      A
 Frequencies --     94.8046               109.6575               133.3835
 Red. masses --      7.3955                 8.0613                 6.2581
 Frc consts  --      0.0392                 0.0571                 0.0656
 IR Inten    --      0.4529                 1.0505                 0.4512

                      7                      8                      9
                      A                      A                      A
 Frequencies --    147.8748               169.0384               190.5188
 Red. masses --      3.7780                 4.3833                 4.6091
 Frc consts  --      0.0487                 0.0738                 0.0986
 IR Inten    --      0.3326                 1.3212                 1.3794

                     10                     11                     12
                      A                      A                      A
 Frequencies --    224.2005               281.1520               291.0822
 Red. masses --      2.1094                 3.6602                 2.6508
 Frc consts  --      0.0625                 0.1705                 0.1323
 IR Inten    --      0.5286                 1.1599                 2.4815

                     13                     14                     15
                      A                      A                      A
 Frequencies --    308.4014               338.0103               382.5765
 Red. masses --      2.6740                 2.7446                 4.9129
 Frc consts  --      0.1498                 0.1848                 0.4237
 IR Inten    --      2.7386                 1.6795                 1.3948

                     16                     17                     18
                      A                      A                      A
 Frequencies --    507.3755               511.9320               535.9750
 Red. masses --      1.5354                 2.3859                 5.4643
 Frc consts  --      0.2329                 0.3684                 0.9249
 IR Inten    --     36.7932                43.9550                18.8632

                     19                     20                     21
                      A                      A                      A
 Frequencies --    549.1604               573.3113               576.7220
 Red. masses --      1.3572                 1.7340                 3.0922
 Frc consts  --      0.2411                 0.3358                 0.6060
 IR Inten    --     27.2548                89.3818                21.0653

                     22                     23                     24
                      A                      A                      A
 Frequencies --    613.4990               619.2931               664.3832
 Red. masses --      1.2864                 2.1814                 2.1787
 Frc consts  --      0.2853                 0.4929                 0.5666
 IR Inten    --     71.1383                94.5515                31.4740

                     25                     26                     27
                      A                      A                      A
 Frequencies --    680.7837               721.9373               826.1646
 Red. masses --      1.6339                 9.8455                 3.0072
 Frc consts  --      0.4462                 3.0233                 1.2093
 IR Inten    --     16.9375                94.7264                67.8331

                     28                     29                     30
                      A                      A                      A
 Frequencies --    834.3080               891.7325               937.1018
 Red. masses --      3.2228                 1.7614                 3.4488
 Frc consts  --      1.3217                 0.8252                 1.7844
 IR Inten    --      8.5503                 3.3009                36.8320

                     31                     32                     33
                      A                      A                      A
 Frequencies --    947.8129              1003.9830              1010.7194
 Red. masses --      1.5319                 1.2818                 1.1666
 Frc consts  --      0.8108                 0.7613                 0.7021
 IR Inten    --     62.8618                83.1708                69.8836

                     34                     35                     36
                      A                      A                      A
 Frequencies --   1027.6624              1052.6392              1057.2710
 Red. masses --      2.6101                 1.1721                 1.6664
 Frc consts  --      1.6241                 0.7652                 1.0975
 IR Inten    --     32.9382                23.2209                86.2814

                     37                     38                     39
                      A                      A                      A
 Frequencies --   1072.0275              1103.7087              1193.1314
 Red. masses --      1.1223                 1.4986                 1.7939
 Frc consts  --      0.7599                 1.0756                 1.5046
 IR Inten    --     23.6572                42.7596               472.8063

                     40                     41                     42
                      A                      A                      A
 Frequencies --   1214.7082              1275.3841              1333.2348
 Red. masses --      1.8216                 3.0179                 1.3996
 Frc consts  --      1.5836                 2.8923                 1.4658
 IR Inten    --    138.5584                75.3722                 1.8168

                     43                     44                     45
                      A                      A                      A
 Frequencies --   1342.0930              1352.1434              1381.6170
 Red. masses --      1.4253                 1.2556                 1.3352
 Frc consts  --      1.5126                 1.3526                 1.5016
 IR Inten    --      6.5042                17.9979                 8.6671

                     46                     47                     48
                      A                      A                      A
 Frequencies --   1395.2509              1428.4875              1482.3815
 Red. masses --      2.0560                 2.5120                 1.2988
 Frc consts  --      2.3582                 3.0201                 1.6816
 IR Inten    --     44.2999               234.9557                26.5756

                     49                     50                     51
                      A                      A                      A
 Frequencies --   1488.7888              1505.7982              1650.8247
 Red. masses --      1.5232                 1.4357                 3.1452
 Frc consts  --      1.9891                 1.9180                 5.0500
 IR Inten    --     13.0490                 1.9176                99.7966

                     52                     53                     54
                      A                      A                      A
 Frequencies --   1678.8177              1709.2205              1782.1641
 Red. masses --      3.9811                 3.9073                 7.9277
 Frc consts  --      6.6109                 6.7254                14.8353
 IR Inten    --     10.7098               132.2442               295.3639

                     55                     56                     57
                      A                      A                      A
 Frequencies --   1845.7355              3144.0233              3156.8718
 Red. masses --      8.1233                 1.0857                 1.0649
 Frc consts  --     16.3051                 6.3229                 6.2526
 IR Inten    --    744.1533                21.5992                17.8097

                     58                     59                     60
                      A                      A                      A
 Frequencies --   3162.7126              3182.4076              3218.6021
 Red. masses --      1.0853                 1.0594                 1.0927
 Frc consts  --      6.3962                 6.3217                 6.6695
 IR Inten    --      8.8251                 3.9832                 0.8813

                     61                     62                     63
                      A                      A                      A
 Frequencies --   3234.0808              3253.3117              3265.6569
 Red. masses --      1.1146                 1.0894                 1.1143
 Frc consts  --      6.8683                 6.7936                 7.0015
 IR Inten    --     19.3003                 3.5566                 2.8356

                     64                     65                     66
                      A                      A                      A
 Frequencies --   3463.6034              3501.1543              3538.9559
 Red. masses --      1.0757                 1.0638                 1.0644
 Frc consts  --      7.6035                 7.6830                 7.8543
 IR Inten    --     54.4561                60.5119               121.0711

 - Thermochemistry -
 -------------------
 Temperature   298.150 Kelvin.  Pressure   1.00000 Atm.
 Atom     1 has atomic number  6 and mass  12.00000

 Molecular mass:   185.06881 amu.
 Principal axes and moments of inertia in atomic units:
                           1         2         3
     Eigenvalues --  1726.673822967.686113627.27071
           X            0.99979  -0.01975  -0.00513
           Y            0.01980   0.99976   0.00969
           Z            0.00493  -0.00979   0.99994
 This molecule is an asymmetric top.
 Rotational symmetry number  1.
 Warning -- assumption of classical behavior for rotation
           may cause significant error
 Rotational temperatures (Kelvin)      0.05016     0.02919     0.02388
 Rotational constants (GHZ):           1.04521     0.60813     0.49755
 Zero-point vibrational energy     492563.7 (Joules/Mol)
                                  117.72555 (Kcal/Mol)
 Warning -- explicit consideration of  23 degrees of freedom as
           vibrations may cause significant error
 Vibrational temperatures:     52.48    84.23   120.63   136.40   157.77
          (Kelvin)            191.91   212.76   243.21   274.11   322.57
                              404.52   418.80   443.72   486.32   550.44
                              730.00   736.56   771.15   790.12   824.87
                              829.77   882.69   891.02   955.90   979.50
                             1038.71  1188.67  1200.38  1283.00  1348.28
                             1363.69  1444.51  1454.20  1478.58  1514.51
                             1521.18  1542.41  1587.99  1716.65  1747.69
                             1834.99  1918.23  1930.97  1945.43  1987.84
                             2007.45  2055.27  2132.82  2142.03  2166.51
                             2375.17  2415.44  2459.19  2564.14  2655.60
                             4523.55  4542.03  4550.44  4578.77  4630.85
                             4653.12  4680.79  4698.55  4983.35  5037.38
                             5091.77

 Zero-point correction=                           0.187608 (Hartree/Particle)
 Thermal correction to Energy=                    0.201816
 Thermal correction to Enthalpy=                  0.202761
 Thermal correction to Gibbs Free Energy=         0.146216
 Sum of electronic and zero-point Energies=           -663.133733
 Sum of electronic and thermal Energies=              -663.119524
 Sum of electronic and thermal Enthalpies=            -663.118579
 Sum of electronic and thermal Free Energies=         -663.175124

                     E (Thermal)             CV                S
                      KCal/Mol        Cal/Mol-Kelvin    Cal/Mol-Kelvin
 Total                  126.642             51.367            119.008
 Electronic               0.000              0.000              0.000
 Translational            0.889              2.981             41.553
 Rotational               0.889              2.981             31.297
 Vibrational            124.864             45.405             46.158
 Vibration     1          0.594              1.982              5.442
 Vibration     2          0.596              1.974              4.506
 Vibration     3          0.601              1.960              3.799
 Vibration     4          0.603              1.953              3.558
 Vibration     5          0.606              1.941              3.275
 Vibration     6          0.613              1.920              2.897
 Vibration     7          0.617              1.905              2.699
 Vibration     8          0.625              1.881              2.446
 Vibration     9          0.634              1.853              2.223
 Vibration    10          0.649              1.804              1.925
 Vibration    11          0.681              1.709              1.527
 Vibration    12          0.687              1.690              1.468
 Vibration    13          0.698              1.658              1.371
 Vibration    14          0.718              1.600              1.222
 Vibration    15          0.752              1.507              1.029
 Vibration    16          0.863              1.234              0.640
 Vibration    17          0.867              1.224              0.629
 Vibration    18          0.891              1.170              0.574
 Vibration    19          0.904              1.142              0.546
 Vibration    20          0.930              1.089              0.498
 Vibration    21          0.933              1.082              0.491
 Vibration    22          0.973              1.003              0.427
 Vibration    23          0.979              0.991              0.418

                           ! Non-Optimized Parameters !
 Normal termination of Gaussian 16 at Mon Nov 13 20:15:48 2017.
