 Gaussian 09, Revision D.01,
 Gaussian 09:  EM64L-G09RevD.01 24-Apr-2013

 ----------------------------------------------------------------------
 #p b3lyp empiricaldispersion=gd3bj cc-pVDZ scrf=(pcm,solvent=1,4-dioxa
 ne) opt=(ts,calcfc,maxstep=5,noeigentest) freq=noraman temperature=383
 ----------------------------------------------------------------------

 -------------------
 Title Card Required
 -------------------
 Symbolic Z-matrix:
 Charge =  0 Multiplicity = 1

 SCF Done:  E(RB3LYP) =  -785.094128045     A.U. after   14 cycles
 SCF Done:  E(RB3LYP) =  -785.095748997     A.U. after   10 cycles
 SCF Done:  E(RB3LYP) =  -785.096752870     A.U. after   10 cycles
 SCF Done:  E(RB3LYP) =  -785.097168720     A.U. after   10 cycles
 SCF Done:  E(RB3LYP) =  -785.097182280     A.U. after    8 cycles
 SCF Done:  E(RB3LYP) =  -785.097182318     A.U. after    6 cycles
 Optimization completed.
    -- Stationary point found.
 Normal termination of Gaussian 09 at Mon Mar 20 18:03:05 2017.

 -------------------------------------------------------------------
 #P Geom=AllCheck Guess=TCheck SCRF=Check GenChk RB3LYP/CC-pVDZ Freq
 -------------------------------------------------------------------

 Structure from the checkpoint file:  "/scratch/ekwan_da_meta_endo_full-b3lyp_d3bj-dz-ts/Gau-31739.chk"
 -------------------
 Title Card Required
 -------------------
 Charge =  0 Multiplicity = 1

                         Standard orientation:
 ---------------------------------------------------------------------
 Center     Atomic      Atomic             Coordinates (Angstroms)
 Number     Number       Type             X           Y           Z
 ---------------------------------------------------------------------
      1          6           0        1.834938   -1.351239    1.382702
      2          1           0        2.345560   -0.851966    2.210360
      3          6           0        2.599901   -1.914291    0.369934
      4          1           0        3.688705   -1.927953    0.447396
      5          1           0        2.175623   -2.659233   -0.302961
      6          6           0        0.455065   -1.155932    1.263541
      7          1           0       -0.058150   -0.516464    1.979626
      8          6           0       -0.225112   -1.532381    0.098927
      9          1           0        0.105170   -2.421407   -0.436498
     10          7           0       -1.598774   -1.299071   -0.103228
     11          1           0       -2.067326   -1.855064   -0.808494
     12          6           0       -2.271181   -0.163475    0.281606
     13          8           0       -1.835742    0.719771    0.995870
     14          8           0       -3.515665   -0.181424   -0.253431
     15          6           0        2.176029   -0.458946   -1.312497
     16          1           0        2.706694   -1.093538   -2.022396
     17          6           0        0.785509   -0.322311   -1.386962
     18          1           0        0.259019   -0.825293   -2.200311
     19          1           0        0.325705    0.586549   -1.001595
     20          6           0        3.033054    0.576350   -0.707078
     21          8           0        4.237000    0.676532   -0.865157
     22          8           0        2.321474    1.423158    0.079938
     23          6           0        3.092900    2.413141    0.769404
     24          1           0        2.370447    3.003173    1.345981
     25          1           0        3.823473    1.937511    1.441624
     26          1           0        3.635639    3.053345    0.058090
     27          6           0       -4.347176    0.953075    0.082273
     28          1           0       -4.420962    1.027936    1.178334
     29          1           0       -3.859531    1.870663   -0.282788
     30          6           0       -5.695687    0.728290   -0.566901
     31          1           0       -6.363987    1.572934   -0.338555
     32          1           0       -5.597612    0.649743   -1.660811
     33          1           0       -6.163020   -0.195428   -0.191867
 ---------------------------------------------------------------------

 SCF Done:  E(RB3LYP) =  -785.097182318     A.U. after    1 cycles

 The electronic state is 1-A.
 Alpha  occ. eigenvalues --  -19.18510 -19.17148 -19.12375 -19.11051 -14.37530
 Alpha  occ. eigenvalues --  -10.34032 -10.29920 -10.24772 -10.24728 -10.23263
 Alpha  occ. eigenvalues --  -10.19827 -10.19781 -10.19400 -10.19134 -10.18712
 Alpha  occ. eigenvalues --  -10.18659  -1.11322  -1.08974  -1.02069  -0.99915
 Alpha  occ. eigenvalues --   -0.94974  -0.81962  -0.78083  -0.77486  -0.72691
 Alpha  occ. eigenvalues --   -0.70753  -0.66763  -0.62533  -0.61940  -0.59375
 Alpha  occ. eigenvalues --   -0.56565  -0.55181  -0.53255  -0.50579  -0.49894
 Alpha  occ. eigenvalues --   -0.49213  -0.47137  -0.46547  -0.46278  -0.44654
 Alpha  occ. eigenvalues --   -0.44385  -0.43603  -0.42154  -0.41200  -0.41012
 Alpha  occ. eigenvalues --   -0.39643  -0.39501  -0.38025  -0.37447  -0.37040
 Alpha  occ. eigenvalues --   -0.36019  -0.35590  -0.35277  -0.34604  -0.30426
 Alpha  occ. eigenvalues --   -0.30299  -0.29055  -0.28291  -0.26294  -0.23589
 Alpha  occ. eigenvalues --   -0.21698
 Alpha virt. eigenvalues --   -0.03747  -0.01130   0.03945   0.04214   0.06260
 Alpha virt. eigenvalues --    0.06402   0.06716   0.08054   0.09833   0.10371
 Alpha virt. eigenvalues --    0.10662   0.11175   0.11816   0.12499   0.12827

 Mulliken charges:
               1
     1  C   -0.021524
     2  H   -0.014525
     3  C    0.017279
     4  H    0.029363
     5  H    0.026163
     6  C    0.053925
     7  H   -0.006746
     8  C   -0.007539
     9  H    0.029122
    10  N   -0.093103
    11  H    0.103124
    12  C    0.317146
    13  O   -0.297664
    14  O   -0.292628
    15  C   -0.110109
    16  H    0.000467
    17  C    0.053801
    18  H    0.017738
    19  H    0.036741
    20  C    0.244103
    21  O   -0.297195
    22  O   -0.266699
    23  C    0.123691
    24  H    0.036347
    25  H    0.031097
    26  H    0.034366
    27  C    0.115047
    28  H    0.032700
    29  H    0.032271
    30  C   -0.022786
    31  H    0.030871
    32  H    0.032193
    33  H    0.032964
 Sum of Mulliken charges =   0.00000

 Dipole moment (field-independent basis, Debye):
    X=             -4.6201    Y=             -1.5684    Z=             -0.7604  Tot=              4.9380
 Quadrupole moment (field-independent basis, Debye-Ang):
   XX=            -97.5876   YY=            -87.3560   ZZ=            -94.5162
   XY=             -1.2887   XZ=              9.2367   YZ=              5.7758

  Exact polarizability: 223.854  -6.653 143.496   0.599   2.877 144.868
 Approx polarizability: 285.782  -5.921 193.654  -4.868  -1.037 223.913

 ******    1 imaginary frequencies (negative Signs) ******

                      1                      2                      3
                      A                      A                      A
 Frequencies --   -494.9484                24.9059                35.4442
 Red. masses --      8.1716                 4.5312                 3.3449
 Frc consts  --      1.1794                 0.0017                 0.0025
 IR Inten    --     39.7625                 0.0389                 0.6815

                      4                      5                      6
                      A                      A                      A
 Frequencies --     50.0761                67.4373                77.2851
 Red. masses --      3.6303                 4.1424                 4.2390
 Frc consts  --      0.0054                 0.0111                 0.0149
 IR Inten    --      1.5044                 5.4339                 0.3473

                      7                      8                      9
                      A                      A                      A
 Frequencies --     91.2826               108.1461               120.0103
 Red. masses --      3.5606                 2.9695                 2.7675
 Frc consts  --      0.0175                 0.0205                 0.0235
 IR Inten    --      2.4529                 0.6658                 2.2722

                     10                     11                     12
                      A                      A                      A
 Frequencies --    137.4173               183.0132               190.0382
 Red. masses --      1.4016                 3.8844                 4.5961
 Frc consts  --      0.0156                 0.0767                 0.0978
 IR Inten    --      0.1075                 1.9756                 3.1725

                     13                     14                     15
                      A                      A                      A
 Frequencies --    212.8366               235.8873               253.9819
 Red. masses --      4.3761                 3.3612                 3.7706
 Frc consts  --      0.1168                 0.1102                 0.1433
 IR Inten    --      5.1111                 1.5658                 5.6930

                     16                     17                     18
                      A                      A                      A
 Frequencies --    266.1745               314.0184               345.1150
 Red. masses --      1.2239                 3.7887                 4.0896
 Frc consts  --      0.0511                 0.2201                 0.2870
 IR Inten    --      0.9745                14.6176                 9.3093

                     19                     20                     21
                      A                      A                      A
 Frequencies --    350.8892               365.4954               404.1023
 Red. masses --      5.1743                 4.0529                 3.3604
 Frc consts  --      0.3754                 0.3190                 0.3233
 IR Inten    --     14.0103                 5.6051                 2.7561

                     22                     23                     24
                      A                      A                      A
 Frequencies --    421.4112               480.3839               524.0777
 Red. masses --      4.6494                 2.5414                 1.5013
 Frc consts  --      0.4865                 0.3455                 0.2429
 IR Inten    --     12.1730                16.7519                51.3756

                     25                     26                     27
                      A                      A                      A
 Frequencies --    550.1132               572.2187               639.2788
 Red. masses --      1.9155                 3.7276                 2.9302
 Frc consts  --      0.3415                 0.7191                 0.7056
 IR Inten    --     37.1692                 1.7467                 2.4582

                     28                     29                     30
                      A                      A                      A
 Frequencies --    655.2516               711.8198               734.6785
 Red. masses --      3.3294                 1.6151                 1.7195
 Frc consts  --      0.8422                 0.4822                 0.5468
 IR Inten    --      0.7219                41.9568                 7.4907

                     31                     32                     33
                      A                      A                      A
 Frequencies --    764.1843               783.4801               793.6822
 Red. masses --      8.6710                 3.8807                 2.0677
 Frc consts  --      2.9834                 1.4035                 0.7674
 IR Inten    --     25.9715                 6.2643                 7.1361

                     34                     35                     36
                      A                      A                      A
 Frequencies --    810.2935               852.5972               861.7439
 Red. masses --      1.1175                 1.7616                 2.4074
 Frc consts  --      0.4323                 0.7545                 1.0533
 IR Inten    --      0.4009                30.8909                 4.8966

                     37                     38                     39
                      A                      A                      A
 Frequencies --    904.7939               915.1132               925.3647
 Red. masses --      1.5336                 1.8992                 1.2424
 Frc consts  --      0.7397                 0.9370                 0.6268
 IR Inten    --     14.2837                10.3157                32.9103

                     40                     41                     42
                      A                      A                      A
 Frequencies --    968.9721               973.9179               993.3381
 Red. masses --      1.4167                 3.2126                 1.2432
 Frc consts  --      0.7837                 1.7954                 0.7227
 IR Inten    --     10.2375                48.9079                 6.1565

                     43                     44                     45
                      A                      A                      A
 Frequencies --   1018.2072              1035.2638              1038.9099
 Red. masses --      1.2426                 1.6304                 1.4276
 Frc consts  --      0.7590                 1.0295                 0.9078
 IR Inten    --      1.5583                22.2724                 7.7451

                     46                     47                     48
                      A                      A                      A
 Frequencies --   1064.0794              1098.8068              1103.7545
 Red. masses --      2.7671                 2.2806                 2.7250
 Frc consts  --      1.8460                 1.6224                 1.9560
 IR Inten    --     89.4376                70.6294               131.4017

                     49                     50                     51
                      A                      A                      A
 Frequencies --   1131.7852              1160.4136              1167.4013
 Red. masses --      2.2270                 1.2884                 1.5543
 Frc consts  --      1.6807                 1.0222                 1.2480
 IR Inten    --      7.4855                 1.3060                 4.6400

                     52                     53                     54
                      A                      A                      A
 Frequencies --   1192.5667              1213.1465              1233.7286
 Red. masses --      1.5284                 1.6540                 3.4541
 Frc consts  --      1.2807                 1.4342                 3.0976
 IR Inten    --     15.6106                51.5821               773.4507

                     55                     56                     57
                      A                      A                      A
 Frequencies --   1243.1441              1272.5375              1278.1851
 Red. masses --      1.6603                 1.5153                 2.7678
 Frc consts  --      1.5117                 1.4457                 2.6642
 IR Inten    --     41.0501               105.7188               258.0649

                     58                     59                     60
                      A                      A                      A
 Frequencies --   1281.5068              1302.8972              1352.9247
 Red. masses --      1.0985                 1.4448                 1.6059
 Frc consts  --      1.0629                 1.4450                 1.7318
 IR Inten    --      1.3248               118.9182                45.0385

                     61                     62                     63
                      A                      A                      A
 Frequencies --   1375.9259              1390.1839              1409.3491
 Red. masses --      1.2596                 1.5366                 1.4141
 Frc consts  --      1.4049                 1.7497                 1.6548
 IR Inten    --      0.0822                32.8479                24.2183

                     64                     65                     66
                      A                      A                      A
 Frequencies --   1447.3344              1449.7867              1451.9209
 Red. masses --      1.0605                 1.1695                 1.0369
 Frc consts  --      1.3089                 1.4483                 1.2879
 IR Inten    --     14.2426                24.9102                 7.3860

                     67                     68                     69
                      A                      A                      A
 Frequencies --   1463.4025              1467.4786              1468.7622
 Red. masses --      1.4867                 1.0561                 1.0933
 Frc consts  --      1.8759                 1.3400                 1.3896
 IR Inten    --    100.3974                 2.7828                 6.7444

                     70                     71                     72
                      A                      A                      A
 Frequencies --   1492.4265              1502.0579              1541.6315
 Red. masses --      1.1018                 1.8855                 2.1581
 Frc consts  --      1.4459                 2.5064                 3.0220
 IR Inten    --     38.2446                 2.1747               669.2421

                     73                     74                     75
                      A                      A                      A
 Frequencies --   1583.8638              1601.9635              1773.5372
 Red. masses --      2.9097                 3.2465                10.9236
 Frc consts  --      4.3006                 4.9088                20.2440
 IR Inten    --      7.4351                12.3706               453.1194

                     76                     77                     78
                      A                      A                      A
 Frequencies --   1792.0348              3042.3876              3043.4615
 Red. masses --     10.4135                 1.0357                 1.0311
 Frc consts  --     19.7034                 5.6482                 5.6273
 IR Inten    --    265.9778                22.8967                42.7203

                     79                     80                     81
                      A                      A                      A
 Frequencies --   3053.4429              3095.4512              3120.3971
 Red. masses --      1.0586                 1.1076                 1.1063
 Frc consts  --      5.8151                 6.2530                 6.3464
 IR Inten    --     21.6900                 8.0184                26.1966

                     82                     83                     84
                      A                      A                      A
 Frequencies --   3123.1565              3126.1395              3144.5317
 Red. masses --      1.1018                 1.1052                 1.0578
 Frc consts  --      6.3321                 6.3638                 6.1628
 IR Inten    --     24.3273                41.6524                 9.8227

                     85                     86                     87
                      A                      A                      A
 Frequencies --   3151.7119              3163.3760              3170.3632
 Red. masses --      1.0572                 1.1062                 1.0899
 Frc consts  --      6.1874                 6.5223                 6.4546
 IR Inten    --      6.8310                14.0955                12.3847

                     88                     89                     90
                      A                      A                      A
 Frequencies --   3198.0936              3201.1958              3233.4710
 Red. masses --      1.0899                 1.0913                 1.0906
 Frc consts  --      6.5676                 6.5892                 6.7181
 IR Inten    --      8.4931                 2.9821                 0.0774

                     91                     92                     93
                      A                      A                      A
 Frequencies --   3240.9087              3254.9798              3618.9119
 Red. masses --      1.1160                 1.1144                 1.0776
 Frc consts  --      6.9060                 6.9565                 8.3152
 IR Inten    --      6.6320                 2.5220                63.9936

 - Thermochemistry -
 -------------------
 Temperature   383.000 Kelvin.  Pressure   1.00000 Atm.
 Atom     1 has atomic number  6 and mass  12.00000

 Molecular mass:   227.11576 amu.
 Principal axes and moments of inertia in atomic units:
                           1         2         3
     Eigenvalues --  1762.596647607.185218209.75022
           X            0.99992  -0.00839   0.00991
           Y            0.00786   0.99856   0.05311
           Z           -0.01034  -0.05303   0.99854
 This molecule is an asymmetric top.
 Rotational symmetry number  1.
 Warning -- assumption of classical behavior for rotation
           may cause significant error
 Rotational temperatures (Kelvin)      0.04914     0.01139     0.01055
 Rotational constants (GHZ):           1.02391     0.23724     0.21983
    1 imaginary frequencies ignored.
 Zero-point vibrational energy     712096.1 (Joules/Mol)
                                  170.19505 (Kcal/Mol)
 Warning -- explicit consideration of  32 degrees of freedom as
           vibrations may cause significant error
 Vibrational temperatures:     35.83    51.00    72.05    97.03   111.20
          (Kelvin)            131.34   155.60   172.67   197.71   263.31
                              273.42   306.22   339.39   365.42   382.97
                              451.80   496.54   504.85   525.87   581.41
                              606.32   691.16   754.03   791.49   823.29
                              919.78   942.76  1024.15  1057.04  1099.49
                             1127.25  1141.93  1165.83  1226.70  1239.86
                             1301.80  1316.64  1331.39  1394.13  1401.25
                             1429.19  1464.97  1489.51  1494.76  1530.97
                             1580.94  1588.05  1628.38  1669.57  1679.63
                             1715.84  1745.45  1775.06  1788.60  1830.90
                             1839.02  1843.80  1874.58  1946.55  1979.65
                             2000.16  2027.74  2082.39  2085.92  2088.99
                             2105.51  2111.37  2113.22  2147.27  2161.12
                             2218.06  2278.82  2304.87  2551.72  2578.34
                             4377.31  4378.86  4393.22  4453.66  4489.55
                             4493.52  4497.81  4524.27  4534.60  4551.39
                             4561.44  4601.34  4605.80  4652.24  4662.94
                             4683.18  5206.80

 Zero-point correction=                           0.271223 (Hartree/Particle)
 Thermal correction to Energy=                    0.298348
 Thermal correction to Enthalpy=                  0.299561
 Thermal correction to Gibbs Free Energy=         0.204350
 Sum of electronic and zero-point Energies=           -784.825959
 Sum of electronic and thermal Energies=              -784.798834
 Sum of electronic and thermal Enthalpies=            -784.797621
 Sum of electronic and thermal Free Energies=         -784.892833

                     E (Thermal)             CV                S
                      KCal/Mol        Cal/Mol-Kelvin    Cal/Mol-Kelvin
 Total                  187.216             78.368            155.995
 Electronic               0.000              0.000              0.000
 Translational            1.142              2.981             43.407
 Rotational               1.142              2.981             33.811
 Vibrational            184.933             72.406             78.776
 Vibration     1          0.762              1.986              6.696
 Vibration     2          0.762              1.984              5.995
 Vibration     3          0.763              1.981              5.310
 Vibration     4          0.765              1.977              4.721
 Vibration     5          0.766              1.973              4.452
 Vibration     6          0.769              1.968              4.124
 Vibration     7          0.772              1.960              3.791
 Vibration     8          0.774              1.954              3.587
 Vibration     9          0.778              1.944              3.323
 Vibration    10          0.791              1.911              2.770
 Vibration    11          0.793              1.905              2.699
 Vibration    12          0.801              1.885              2.484
 Vibration    13          0.810              1.862              2.291
 Vibration    14          0.818              1.843              2.154
 Vibration    15          0.823              1.830              2.068
 Vibration    16          0.847              1.772              1.770
 Vibration    17          0.865              1.731              1.605
 Vibration    18          0.868              1.723              1.576
 Vibration    19          0.877              1.702              1.506
 Vibration    20          0.902              1.646              1.338
 Vibration    21          0.914              1.619              1.270
 Vibration    22          0.957              1.526              1.064
 Vibration    23          0.992              1.453              0.934
 Vibration    24          1.014              1.409              0.864
 Vibration    25          1.034              1.371              0.810
 Vibration    26          1.096              1.255              0.664
 Vibration    27          1.111              1.228              0.633
 Vibration    28          1.168              1.131              0.536
 Vibration    29          1.192              1.092              0.501
 Vibration    30          1.224              1.043              0.459
 Vibration    31          1.245              1.011              0.433
 Vibration    32          1.256              0.994              0.420

 Optimization completed.
    -- Stationary point found.
 Normal termination of Gaussian 09 at Mon Mar 20 18:17:37 2017.
