 Gaussian 09, Revision D.01,
 Gaussian 09:  EM64L-G09RevD.01 24-Apr-2013

 ----------------------------------------------------------------------
 #p b3lyp empiricaldispersion=gd3bj cc-pVDZ scrf=(pcm,solvent=1,4-dioxa
 ne) opt=(ts,calcfc,maxstep=5,noeigentest) freq=noraman temperature=383
 ----------------------------------------------------------------------

 -------------------
 Title Card Required
 -------------------
 Symbolic Z-matrix:
 Charge =  0 Multiplicity = 1

 SCF Done:  E(RB3LYP) =  -785.094103259     A.U. after   13 cycles
 SCF Done:  E(RB3LYP) =  -785.095730688     A.U. after   10 cycles
 SCF Done:  E(RB3LYP) =  -785.096742406     A.U. after   10 cycles
 SCF Done:  E(RB3LYP) =  -785.097161985     A.U. after   10 cycles
 SCF Done:  E(RB3LYP) =  -785.097175693     A.U. after    9 cycles
 SCF Done:  E(RB3LYP) =  -785.097175761     A.U. after    8 cycles
 SCF Done:  E(RB3LYP) =  -785.097175646     A.U. after    7 cycles
 Optimization completed.
    -- Stationary point found.
 Normal termination of Gaussian 09 at Mon Mar 20 18:30:43 2017.

 -------------------------------------------------------------------
 #P Geom=AllCheck Guess=TCheck SCRF=Check GenChk RB3LYP/CC-pVDZ Freq
 -------------------------------------------------------------------

 Structure from the checkpoint file:  "/scratch/ekwan_da_meta_exo_full-b3lyp_d3bj-dz-ts/Gau-30700.chk"
 -------------------
 Title Card Required
 -------------------
 Charge =  0 Multiplicity = 1

                         Standard orientation:
 ---------------------------------------------------------------------
 Center     Atomic      Atomic             Coordinates (Angstroms)
 Number     Number       Type             X           Y           Z
 ---------------------------------------------------------------------
      1          6           0       -1.307672    2.552210   -0.447510
      2          1           0       -1.366595    3.572885   -0.058341
      3          6           0       -2.473153    1.807723   -0.552329
      4          1           0       -3.438373    2.255817   -0.308163
      5          1           0       -2.518864    0.938090   -1.207701
      6          6           0       -0.035594    1.984597   -0.584280
      7          1           0        0.843955    2.570239   -0.321267
      8          6           0        0.119306    0.606770   -0.785821
      9          1           0       -0.631451    0.063035   -1.358435
     10          7           0        1.377664   -0.019550   -0.870947
     11          1           0        1.416069   -0.928545   -1.316563
     12          6           0        2.468658    0.294781   -0.096189
     13          8           0        2.566904    1.252903    0.647628
     14          8           0        3.436879   -0.630848   -0.295668
     15          6           0       -2.127773    0.263491    1.107117
     16          1           0       -2.424528    0.989414    1.861744
     17          6           0       -0.795560   -0.153013    1.001913
     18          1           0       -0.051343    0.279178    1.671624
     19          1           0       -0.598838   -1.168932    0.660179
     20          6           0       -3.236073   -0.579952    0.633064
     21          8           0       -4.389969   -0.519130    1.012630
     22          8           0       -2.831481   -1.447451   -0.342855
     23          6           0       -3.860082   -2.302472   -0.860394
     24          1           0       -4.679280   -1.709382   -1.293382
     25          1           0       -3.378157   -2.913835   -1.633083
     26          1           0       -4.271890   -2.942947   -0.066064
     27          6           0        4.659544   -0.414717    0.445875
     28          1           0        4.425767   -0.408015    1.522028
     29          1           0        5.061977    0.576684    0.185689
     30          6           0        5.611092   -1.532011    0.076474
     31          1           0        6.559764   -1.408362    0.621381
     32          1           0        5.185982   -2.513304    0.338698
     33          1           0        5.827324   -1.523406   -1.003113
 ---------------------------------------------------------------------

 SCF Done:  E(RB3LYP) =  -785.097175646     A.U. after    1 cycles

 The electronic state is 1-A.
 Alpha  occ. eigenvalues --  -19.18561 -19.17903 -19.12442 -19.11818 -14.37538
 Alpha  occ. eigenvalues --  -10.34099 -10.30467 -10.24812 -10.24718 -10.23926
 Alpha  occ. eigenvalues --  -10.19800 -10.19780 -10.19615 -10.19156 -10.18824
 Alpha  occ. eigenvalues --  -10.18762  -1.11380  -1.09494  -1.02125  -1.00617
 Alpha  occ. eigenvalues --   -0.95000  -0.82007  -0.78249  -0.77685  -0.72733
 Alpha  occ. eigenvalues --   -0.71096  -0.66820  -0.62625  -0.62232  -0.59413
 Alpha  occ. eigenvalues --   -0.56621  -0.55513  -0.53427  -0.50784  -0.49896
 Alpha  occ. eigenvalues --   -0.49552  -0.47719  -0.46858  -0.46456  -0.44400
 Alpha  occ. eigenvalues --   -0.44261  -0.43979  -0.42565  -0.41508  -0.41264
 Alpha  occ. eigenvalues --   -0.39629  -0.39415  -0.38001  -0.37820  -0.37323
 Alpha  occ. eigenvalues --   -0.36056  -0.35911  -0.35461  -0.35330  -0.30520
 Alpha  occ. eigenvalues --   -0.30432  -0.29770  -0.28376  -0.26818  -0.23684
 Alpha  occ. eigenvalues --   -0.21796
 Alpha virt. eigenvalues --   -0.04093  -0.01416   0.04114   0.04424   0.06323
 Alpha virt. eigenvalues --    0.06463   0.06987   0.07903   0.09256   0.10105
 Alpha virt. eigenvalues --    0.10968   0.11360   0.11589   0.11990   0.12437

 Mulliken charges:
               1
     1  C   -0.023197
     2  H   -0.015229
     3  C    0.008505
     4  H    0.028934
     5  H    0.038777
     6  C    0.044592
     7  H   -0.006955
     8  C   -0.002955
     9  H    0.029777
    10  N   -0.093962
    11  H    0.104180
    12  C    0.317608
    13  O   -0.300031
    14  O   -0.292061
    15  C   -0.094109
    16  H    0.006728
    17  C    0.053863
    18  H    0.036007
    19  H    0.018009
    20  C    0.230777
    21  O   -0.284960
    22  O   -0.287544
    23  C    0.124474
    24  H    0.035614
    25  H    0.031589
    26  H    0.037940
    27  C    0.114923
    28  H    0.032210
    29  H    0.032707
    30  C   -0.022812
    31  H    0.031023
    32  H    0.032428
    33  H    0.033151
 Sum of Mulliken charges =   0.00000

 Dipole moment (field-independent basis, Debye):
    X=              3.2333    Y=             -2.6796    Z=             -2.4913  Tot=              4.8827
 Quadrupole moment (field-independent basis, Debye-Ang):
   XX=            -96.8089   YY=            -91.1221   ZZ=            -95.7660
   XY=             -3.8683   XZ=              7.8705   YZ=              3.2987

  Exact polarizability: 231.454  -2.291 168.310  -4.292  -2.251 122.707
 Approx polarizability: 288.996  -2.751 238.056 -18.108  -9.295 183.896

 ******    1 imaginary frequencies (negative Signs) ******

                      1                      2                      3
                      A                      A                      A
 Frequencies --   -491.4082                24.1385                25.5954
 Red. masses --      8.1193                 3.6819                 4.1286
 Frc consts  --      1.1552                 0.0013                 0.0016
 IR Inten    --     38.9794                 1.4196                 0.3142

                      4                      5                      6
                      A                      A                      A
 Frequencies --     37.6144                65.9545                72.5915
 Red. masses --      3.4870                 4.9102                 4.1019
 Frc consts  --      0.0029                 0.0126                 0.0127
 IR Inten    --      0.2402                 0.5265                 4.3652

                      7                      8                      9
                      A                      A                      A
 Frequencies --     86.7761               109.6947               120.8509
 Red. masses --      4.0375                 3.1737                 2.9177
 Frc consts  --      0.0179                 0.0225                 0.0251
 IR Inten    --      1.0847                 0.6230                 2.9639

                     10                     11                     12
                      A                      A                      A
 Frequencies --    145.8031               184.5368               190.7738
 Red. masses --      1.2597                 3.7127                 3.8857
 Frc consts  --      0.0158                 0.0745                 0.0833
 IR Inten    --      0.4596                 6.8195                 0.3340

                     13                     14                     15
                      A                      A                      A
 Frequencies --    208.8944               238.6020               249.6194
 Red. masses --      4.5634                 3.8052                 3.4688
 Frc consts  --      0.1173                 0.1276                 0.1273
 IR Inten    --      1.1312                 9.4064                 1.8951

                     16                     17                     18
                      A                      A                      A
 Frequencies --    267.5850               296.5289               346.1156
 Red. masses --      1.2314                 3.5903                 3.9808
 Frc consts  --      0.0519                 0.1860                 0.2810
 IR Inten    --      0.4771                11.2467                 7.2665

                     19                     20                     21
                      A                      A                      A
 Frequencies --    349.4795               359.9029               400.6330
 Red. masses --      5.1180                 4.5554                 3.6008
 Frc consts  --      0.3683                 0.3477                 0.3405
 IR Inten    --     20.2873                 8.8078                 3.2516

                     22                     23                     24
                      A                      A                      A
 Frequencies --    410.6043               476.8886               523.5125
 Red. masses --      3.9702                 2.5245                 1.6442
 Frc consts  --      0.3944                 0.3383                 0.2655
 IR Inten    --     17.6177                13.5089                45.8594

                     25                     26                     27
                      A                      A                      A
 Frequencies --    547.7041               579.2358               643.9591
 Red. masses --      1.8006                 3.4406                 3.4529
 Frc consts  --      0.3183                 0.6801                 0.8436
 IR Inten    --     44.8141                 1.9670                 2.3326

                     28                     29                     30
                      A                      A                      A
 Frequencies --    653.5151               721.8484               742.5499
 Red. masses --      3.1017                 1.3818                 2.6944
 Frc consts  --      0.7805                 0.4242                 0.8753
 IR Inten    --      0.4996                23.5430                11.5070

                     31                     32                     33
                      A                      A                      A
 Frequencies --    765.0290               782.5489               810.0610
 Red. masses --      8.7824                 4.1432                 1.1143
 Frc consts  --      3.0284                 1.4949                 0.4308
 IR Inten    --     23.2449                 7.6916                 0.3405

                     34                     35                     36
                      A                      A                      A
 Frequencies --    826.3807               839.7272               851.9443
 Red. masses --      1.6403                 1.6416                 2.7306
 Frc consts  --      0.6600                 0.6820                 1.1677
 IR Inten    --      4.7990                41.7891                 3.2941

                     37                     38                     39
                      A                      A                      A
 Frequencies --    890.3702               913.3688               943.5073
 Red. masses --      1.3974                 2.2858                 1.2624
 Frc consts  --      0.6527                 1.1235                 0.6621
 IR Inten    --     38.3512                 5.2277                15.5584

                     40                     41                     42
                      A                      A                      A
 Frequencies --    968.3887               976.2314              1000.0269
 Red. masses --      1.3866                 3.2716                 1.2025
 Frc consts  --      0.7662                 1.8370                 0.7085
 IR Inten    --     16.5578                54.0811                 4.6421

                     43                     44                     45
                      A                      A                      A
 Frequencies --   1018.2620              1033.1193              1039.0913
 Red. masses --      1.3557                 1.3852                 1.5348
 Frc consts  --      0.8282                 0.8711                 0.9764
 IR Inten    --      1.8139                14.8341                18.5222

                     46                     47                     48
                      A                      A                      A
 Frequencies --   1063.8132              1094.4670              1101.1298
 Red. masses --      2.7548                 3.0723                 2.1848
 Frc consts  --      1.8368                 2.1683                 1.5608
 IR Inten    --    102.1476               151.3428                98.1204

                     49                     50                     51
                      A                      A                      A
 Frequencies --   1132.0248              1159.9058              1167.3218
 Red. masses --      2.2315                 1.2873                 1.5550
 Frc consts  --      1.6848                 1.0204                 1.2484
 IR Inten    --      7.7848                 1.2992                 4.6722

                     52                     53                     54
                      A                      A                      A
 Frequencies --   1191.6233              1213.5556              1233.4024
 Red. masses --      1.5094                 1.6376                 1.9692
 Frc consts  --      1.2628                 1.4209                 1.7651
 IR Inten    --     22.1463                69.4445               480.9013

                     55                     56                     57
                      A                      A                      A
 Frequencies --   1239.0860              1262.2996              1276.0537
 Red. masses --      2.6480                 3.1807                 1.3881
 Frc consts  --      2.3953                 2.9861                 1.3317
 IR Inten    --    384.7671               383.1274                27.6762

                     58                     59                     60
                      A                      A                      A
 Frequencies --   1282.7496              1307.7450              1360.4614
 Red. masses --      1.0979                 1.5245                 1.5002
 Frc consts  --      1.0643                 1.5361                 1.6360
 IR Inten    --      1.5365               129.5843                32.8708

                     61                     62                     63
                      A                      A                      A
 Frequencies --   1376.2651              1397.3238              1409.8640
 Red. masses --      1.2581                 1.5503                 1.4164
 Frc consts  --      1.4040                 1.7835                 1.6588
 IR Inten    --      0.7556                37.3902                23.4912

                     64                     65                     66
                      A                      A                      A
 Frequencies --   1447.2045              1450.3011              1451.8230
 Red. masses --      1.0487                 1.1849                 1.0368
 Frc consts  --      1.2941                 1.4684                 1.2876
 IR Inten    --      8.4001                34.1999                 7.3332

                     67                     68                     69
                      A                      A                      A
 Frequencies --   1463.8732              1467.1106              1469.8380
 Red. masses --      1.4913                 1.0558                 1.0836
 Frc consts  --      1.8829                 1.3390                 1.3793
 IR Inten    --     86.5878                 2.9842                 4.2782

                     70                     71                     72
                      A                      A                      A
 Frequencies --   1492.3479              1501.1675              1541.0081
 Red. masses --      1.1037                 1.8640                 2.1631
 Frc consts  --      1.4482                 2.4749                 3.0265
 IR Inten    --     39.2060                 4.2683               691.9112

                     73                     74                     75
                      A                      A                      A
 Frequencies --   1586.4460              1603.7621              1780.9970
 Red. masses --      2.8708                 3.0586                11.0996
 Frc consts  --      4.2570                 4.6350                20.7436
 IR Inten    --      5.1194                10.2171               502.5950

                     76                     77                     78
                      A                      A                      A
 Frequencies --   1790.3699              3042.2912              3046.1947
 Red. masses --     10.3604                 1.0357                 1.0304
 Frc consts  --     19.5665                 5.6477                 5.6336
 IR Inten    --    279.0695                21.1983                50.3701

                     79                     80                     81
                      A                      A                      A
 Frequencies --   3053.8724              3095.6269              3123.1912
 Red. masses --      1.0585                 1.1075                 1.1018
 Frc consts  --      5.8165                 6.2533                 6.3323
 IR Inten    --     22.2805                 7.9245                24.5249

                     82                     83                     84
                      A                      A                      A
 Frequencies --   3125.1133              3126.1062              3151.6862
 Red. masses --      1.1068                 1.1053                 1.0569
 Frc consts  --      6.3685                 6.3639                 6.1854
 IR Inten    --     22.7100                42.6086                 3.3329

                     85                     86                     87
                      A                      A                      A
 Frequencies --   3152.0493              3160.9469              3164.4407
 Red. masses --      1.0566                 1.1068                 1.0890
 Frc consts  --      6.1853                 6.5155                 6.4248
 IR Inten    --      6.3702                16.3220                17.6368

                     88                     89                     90
                      A                      A                      A
 Frequencies --   3193.2656              3220.3007              3229.4031
 Red. masses --      1.0909                 1.0924                 1.0905
 Frc consts  --      6.5539                 6.6744                 6.7008
 IR Inten    --      3.9887                 1.5006                 0.0958

                     91                     92                     93
                      A                      A                      A
 Frequencies --   3244.1471              3252.1798              3619.3535
 Red. masses --      1.1161                 1.1160                 1.0775
 Frc consts  --      6.9209                 6.9546                 8.3164
 IR Inten    --      7.0953                 2.0440                60.1992

 - Thermochemistry -
 -------------------
 Temperature   383.000 Kelvin.  Pressure   1.00000 Atm.
 Atom     1 has atomic number  6 and mass  12.00000

 Molecular mass:   227.11576 amu.
 Principal axes and moments of inertia in atomic units:
                           1         2         3
     Eigenvalues --  1843.411018138.219909141.72359
           X            0.99993  -0.00899   0.00827
           Y            0.00881   0.99972   0.02178
           Z           -0.00846  -0.02171   0.99973
 This molecule is an asymmetric top.
 Rotational symmetry number  1.
 Warning -- assumption of classical behavior for rotation
           may cause significant error
 Rotational temperatures (Kelvin)      0.04699     0.01064     0.00947
 Rotational constants (GHZ):           0.97902     0.22176     0.19742
    1 imaginary frequencies ignored.
 Zero-point vibrational energy     712107.5 (Joules/Mol)
                                  170.19777 (Kcal/Mol)
 Warning -- explicit consideration of  31 degrees of freedom as
           vibrations may cause significant error
 Vibrational temperatures:     34.73    36.83    54.12    94.89   104.44
          (Kelvin)            124.85   157.83   173.88   209.78   265.51
                              274.48   300.55   343.29   359.15   384.99
                              426.64   497.98   502.82   517.82   576.42
                              590.77   686.14   753.22   788.02   833.39
                              926.51   940.26  1038.58  1068.36  1100.70
                             1125.91  1165.50  1188.98  1208.18  1225.76
                             1281.04  1314.13  1357.49  1393.29  1404.58
                             1438.81  1465.05  1486.43  1495.02  1530.59
                             1574.69  1584.28  1628.73  1668.84  1679.51
                             1714.48  1746.03  1774.59  1782.77  1816.17
                             1835.95  1845.59  1881.55  1957.40  1980.14
                             2010.43  2028.48  2082.20  2086.66  2088.85
                             2106.18  2110.84  2114.77  2147.15  2159.84
                             2217.16  2282.54  2307.45  2562.45  2575.94
                             4377.17  4382.79  4393.84  4453.91  4493.57
                             4496.34  4497.76  4534.57  4535.09  4547.89
                             4552.92  4594.39  4633.29  4646.38  4667.60
                             4679.16  5207.44

 Zero-point correction=                           0.271227 (Hartree/Particle)
 Thermal correction to Energy=                    0.298437
 Thermal correction to Enthalpy=                  0.299650
 Thermal correction to Gibbs Free Energy=         0.203366
 Sum of electronic and zero-point Energies=           -784.825948
 Sum of electronic and thermal Energies=              -784.798738
 Sum of electronic and thermal Enthalpies=            -784.797525
 Sum of electronic and thermal Free Energies=         -784.893810

                     E (Thermal)             CV                S
                      KCal/Mol        Cal/Mol-Kelvin    Cal/Mol-Kelvin
 Total                  187.272             78.363            157.753
 Electronic               0.000              0.000              0.000
 Translational            1.142              2.981             43.407
 Rotational               1.142              2.981             34.030
 Vibrational            184.989             72.402             80.316
 Vibration     1          0.762              1.986              6.758
 Vibration     2          0.762              1.986              6.642
 Vibration     3          0.762              1.984              5.878
 Vibration     4          0.765              1.977              4.765
 Vibration     5          0.766              1.975              4.576
 Vibration     6          0.768              1.970              4.223
 Vibration     7          0.772              1.959              3.763
 Vibration     8          0.774              1.953              3.573
 Vibration     9          0.780              1.938              3.208
 Vibration    10          0.791              1.910              2.755
 Vibration    11          0.793              1.904              2.691
 Vibration    12          0.800              1.888              2.519
 Vibration    13          0.811              1.859              2.270
 Vibration    14          0.816              1.848              2.186
 Vibration    15          0.824              1.828              2.058
 Vibration    16          0.838              1.794              1.872
 Vibration    17          0.865              1.729              1.600
 Vibration    18          0.867              1.725              1.583
 Vibration    19          0.874              1.710              1.533
 Vibration    20          0.900              1.651              1.352
 Vibration    21          0.906              1.636              1.312
 Vibration    22          0.955              1.531              1.075
 Vibration    23          0.992              1.454              0.935
 Vibration    24          1.012              1.413              0.871
 Vibration    25          1.040              1.359              0.793
 Vibration    26          1.100              1.247              0.655
 Vibration    27          1.110              1.231              0.637
 Vibration    28          1.179              1.114              0.520
 Vibration    29          1.201              1.079              0.489
 Vibration    30          1.225              1.041              0.457
 Vibration    31          1.244              1.012              0.434

 Optimization completed.
    -- Stationary point found.
 Normal termination of Gaussian 09 at Mon Mar 20 18:59:38 2017.
