 Gaussian 09, Revision D.01,
 Gaussian 09:  EM64L-G09RevD.01 24-Apr-2013

 ----------------------------------------------------------------------
 #p b3lyp empiricaldispersion=gd3bj cc-pVDZ scrf=(pcm,solvent=1,4-dioxa
 ne) opt=(ts,calcfc,maxstep=5,noeigentest) freq=noraman temperature=383
 ----------------------------------------------------------------------

 -------------------
 Title Card Required
 -------------------
 Symbolic Z-matrix:
 Charge =  0 Multiplicity = 1

 SCF Done:  E(RB3LYP) =  -785.107737507     A.U. after   14 cycles
 SCF Done:  E(RB3LYP) =  -785.109403695     A.U. after   10 cycles
 SCF Done:  E(RB3LYP) =  -785.110418969     A.U. after   10 cycles
 SCF Done:  E(RB3LYP) =  -785.110799484     A.U. after   10 cycles
 SCF Done:  E(RB3LYP) =  -785.110802181     A.U. after    8 cycles
 SCF Done:  E(RB3LYP) =  -785.110802487     A.U. after    8 cycles
 SCF Done:  E(RB3LYP) =  -785.110802524     A.U. after    6 cycles
 Optimization completed.
    -- Stationary point found.
 Normal termination of Gaussian 09 at Mon Mar 20 18:07:50 2017.

 -------------------------------------------------------------------
 #P Geom=AllCheck Guess=TCheck SCRF=Check GenChk RB3LYP/CC-pVDZ Freq
 -------------------------------------------------------------------

 Structure from the checkpoint file:  "/scratch/ekwan_da_ortho_endo_full-b3lyp_d3bj-dz-ts/Gau-30707.chk"
 -------------------
 Title Card Required
 -------------------
 Charge =  0 Multiplicity = 1

                         Standard orientation:
 ---------------------------------------------------------------------
 Center     Atomic      Atomic             Coordinates (Angstroms)
 Number     Number       Type             X           Y           Z
 ---------------------------------------------------------------------
      1          6           0        2.826358   -1.195728    1.064649
      2          1           0        3.220329   -0.894227    2.039484
      3          6           0        3.691128   -1.157593   -0.037492
      4          1           0        4.760781   -1.037094    0.154336
      5          1           0        3.472412   -1.779790   -0.908883
      6          6           0        1.435803   -1.334158    0.963954
      7          1           0        0.815380   -1.138747    1.835096
      8          6           0        0.812781   -1.521118   -0.260807
      9          1           0        1.367817   -1.908508   -1.111064
     10          7           0       -0.546082   -1.475332   -0.496218
     11          1           0       -0.843465   -1.583771   -1.459152
     12          6           0       -1.489751   -0.859974    0.309748
     13          8           0       -1.326735   -0.521097    1.466393
     14          8           0       -2.639345   -0.742473   -0.380514
     15          6           0        1.873541    0.577928   -1.391584
     16          1           0        1.566856    0.176743   -2.358211
     17          6           0        3.220066    0.565458   -1.002631
     18          1           0        3.967746    0.400335   -1.782694
     19          1           0        3.521655    1.261091   -0.219177
     20          6           0        0.822163    1.277586   -0.677678
     21          8           0       -0.344490    1.364375   -1.053161
     22          8           0        1.257244    1.836884    0.487754
     23          6           0        0.238818    2.445465    1.291249
     24          1           0        0.766583    2.912106    2.132745
     25          1           0       -0.313075    3.204432    0.716669
     26          1           0       -0.466680    1.682886    1.653399
     27          6           0       -3.674131    0.025549    0.275505
     28          1           0       -3.873391   -0.414180    1.264611
     29          1           0       -3.295496    1.048887    0.424348
     30          6           0       -4.891172   -0.003687   -0.622853
     31          1           0       -5.246983   -1.035333   -0.770067
     32          1           0       -5.704206    0.581848   -0.166378
     33          1           0       -4.660706    0.430765   -1.607663
 ---------------------------------------------------------------------

 SCF Done:  E(RB3LYP) =  -785.110802524     A.U. after    1 cycles

 The electronic state is 1-A.
 Alpha  occ. eigenvalues --  -19.18313 -19.16090 -19.12619 -19.10114 -14.38310
 Alpha  occ. eigenvalues --  -10.34264 -10.28849 -10.25004 -10.24381 -10.22145
 Alpha  occ. eigenvalues --  -10.20169 -10.19925 -10.19594 -10.18732 -10.18566
 Alpha  occ. eigenvalues --  -10.18308  -1.11447  -1.07691  -1.02226  -0.98713
 Alpha  occ. eigenvalues --   -0.95664  -0.81936  -0.77981  -0.77192  -0.72978
 Alpha  occ. eigenvalues --   -0.69955  -0.67098  -0.62549  -0.61752  -0.59428
 Alpha  occ. eigenvalues --   -0.56541  -0.54153  -0.53774  -0.50837  -0.49841
 Alpha  occ. eigenvalues --   -0.48653  -0.46905  -0.46309  -0.45747  -0.44438
 Alpha  occ. eigenvalues --   -0.44380  -0.43633  -0.41807  -0.41049  -0.40236
 Alpha  occ. eigenvalues --   -0.39300  -0.39116  -0.37901  -0.37240  -0.36723
 Alpha  occ. eigenvalues --   -0.35725  -0.35403  -0.34643  -0.33715  -0.32437
 Alpha  occ. eigenvalues --   -0.30223  -0.28403  -0.27976  -0.25782  -0.24309
 Alpha  occ. eigenvalues --   -0.20221
 Alpha virt. eigenvalues --   -0.05572   0.00071   0.04369   0.05593   0.05781
 Alpha virt. eigenvalues --    0.06576   0.07993   0.08448   0.09512   0.10439
 Alpha virt. eigenvalues --    0.11424   0.11623   0.11823   0.12719   0.13073

 Mulliken charges:
               1
     1  C    0.011414
     2  H   -0.010169
     3  C   -0.008568
     4  H    0.021929
     5  H    0.036670
     6  C    0.020016
     7  H   -0.001769
     8  C    0.030660
     9  H    0.015862
    10  N   -0.063001
    11  H    0.108145
    12  C    0.337416
    13  O   -0.291214
    14  O   -0.280589
    15  C   -0.118988
    16  H   -0.020825
    17  C    0.067101
    18  H    0.031420
    19  H    0.033118
    20  C    0.241590
    21  O   -0.332477
    22  O   -0.282496
    23  C    0.108550
    24  H    0.022666
    25  H    0.025063
    26  H    0.042555
    27  C    0.112448
    28  H    0.030900
    29  H    0.040320
    30  C   -0.025127
    31  H    0.031083
    32  H    0.028986
    33  H    0.037312
 Sum of Mulliken charges =   0.00000

 Dipole moment (field-independent basis, Debye):
    X=              0.3960    Y=             -1.6768    Z=             -1.0204  Tot=              2.0025
 Quadrupole moment (field-independent basis, Debye-Ang):
   XX=            -79.1995   YY=            -94.8277   ZZ=            -94.2897
   XY=             -1.8426   XZ=             -1.5423   YZ=              8.6851

  Exact polarizability: 231.447  -7.431 145.477   0.832  -6.370 150.013
 Approx polarizability: 300.384  -1.136 212.293  12.842 -27.347 237.827

 ******    1 imaginary frequencies (negative Signs) ******

                      1                      2                      3
                      A                      A                      A
 Frequencies --   -432.8093                36.1009                50.7228
 Red. masses --      9.6570                 3.8899                 3.8971
 Frc consts  --      1.0658                 0.0030                 0.0059
 IR Inten    --     38.3702                 1.8103                 0.8607

                      4                      5                      6
                      A                      A                      A
 Frequencies --     56.8437                90.3411               114.8909
 Red. masses --      1.9977                 4.4924                 4.7380
 Frc consts  --      0.0038                 0.0216                 0.0368
 IR Inten    --      1.3999                 0.7252                 2.5111

                      7                      8                      9
                      A                      A                      A
 Frequencies --    122.1924               124.3285               146.4734
 Red. masses --      6.0784                 4.0902                 6.5329
 Frc consts  --      0.0535                 0.0373                 0.0826
 IR Inten    --      2.3527                 0.7728                 1.1594

                     10                     11                     12
                      A                      A                      A
 Frequencies --    174.3666               188.5227               196.2553
 Red. masses --      3.3114                 4.0029                 3.5198
 Frc consts  --      0.0593                 0.0838                 0.0799
 IR Inten    --      0.6343                 8.3551                16.9944

                     13                     14                     15
                      A                      A                      A
 Frequencies --    205.8912               234.8742               251.8111
 Red. masses --      1.2109                 3.7774                 3.1539
 Frc consts  --      0.0302                 0.1228                 0.1178
 IR Inten    --      0.1863                13.0379                 3.0570

                     16                     17                     18
                      A                      A                      A
 Frequencies --    264.5753               287.8413               348.7475
 Red. masses --      1.2289                 3.8193                 4.7088
 Frc consts  --      0.0507                 0.1864                 0.3374
 IR Inten    --      1.7690                 1.3186                12.3056

                     19                     20                     21
                      A                      A                      A
 Frequencies --    352.1787               389.0175               402.8500
 Red. masses --      4.2162                 3.6783                 3.4267
 Frc consts  --      0.3081                 0.3280                 0.3277
 IR Inten    --     16.7386                 0.6551                 1.5061

                     22                     23                     24
                      A                      A                      A
 Frequencies --    423.7743               466.6748               519.6524
 Red. masses --      3.6135                 2.3640                 2.7689
 Frc consts  --      0.3823                 0.3033                 0.4405
 IR Inten    --     11.2764                26.5037                 2.3990

                     25                     26                     27
                      A                      A                      A
 Frequencies --    546.5631               599.6796               638.5924
 Red. masses --      3.6697                 1.3206                 3.5212
 Frc consts  --      0.6459                 0.2798                 0.8460
 IR Inten    --      6.9602               110.1149                 0.5970

                     28                     29                     30
                      A                      A                      A
 Frequencies --    648.5467               718.6429               752.8902
 Red. masses --      3.1824                 2.0053                 6.4257
 Frc consts  --      0.7887                 0.6102                 2.1460
 IR Inten    --      2.0835                 0.7945                23.1836

                     31                     32                     33
                      A                      A                      A
 Frequencies --    768.5801               787.9464               799.8319
 Red. masses --      1.9576                 2.0361                 2.7152
 Frc consts  --      0.6813                 0.7448                 1.0234
 IR Inten    --     89.1579                 4.9917                24.9433

                     34                     35                     36
                      A                      A                      A
 Frequencies --    815.4358               846.2979               865.0212
 Red. masses --      1.1098                 3.3184                 1.6517
 Frc consts  --      0.4348                 1.4003                 0.7282
 IR Inten    --      0.1948                31.3164                 9.3220

                     37                     38                     39
                      A                      A                      A
 Frequencies --    899.6271               914.7448               934.6244
 Red. masses --      1.4337                 2.4187                 1.2002
 Frc consts  --      0.6836                 1.1924                 0.6177
 IR Inten    --     47.7636                 7.9290                37.7011

                     40                     41                     42
                      A                      A                      A
 Frequencies --    952.3896               980.0746              1000.7347
 Red. masses --      1.3796                 3.7998                 1.2361
 Frc consts  --      0.7373                 2.1504                 0.7293
 IR Inten    --     42.9745                24.6234                 1.1975

                     43                     44                     45
                      A                      A                      A
 Frequencies --   1036.9450              1058.3993              1060.9863
 Red. masses --      1.5136                 2.3591                 1.6818
 Frc consts  --      0.9589                 1.5570                 1.1154
 IR Inten    --     14.2468                87.7301                 7.0947

                     46                     47                     48
                      A                      A                      A
 Frequencies --   1084.8403              1103.9032              1110.1352
 Red. masses --      1.5221                 2.2969                 1.7249
 Frc consts  --      1.0554                 1.6491                 1.2525
 IR Inten    --     50.0107               106.7683                26.1780

                     49                     50                     51
                      A                      A                      A
 Frequencies --   1133.4448              1166.9832              1170.9299
 Red. masses --      2.2301                 1.5514                 1.2892
 Frc consts  --      1.6880                 1.2448                 1.0414
 IR Inten    --      6.3387                 9.8426                 1.4493

                     52                     53                     54
                      A                      A                      A
 Frequencies --   1198.8425              1222.8381              1239.3168
 Red. masses --      1.4903                 1.7293                 1.5009
 Frc consts  --      1.2620                 1.5236                 1.3582
 IR Inten    --     29.0481               330.7870                 7.8043

                     55                     56                     57
                      A                      A                      A
 Frequencies --   1250.1378              1276.9524              1283.3624
 Red. masses --      4.2768                 1.7472                 2.0320
 Frc consts  --      3.9381                 1.6786                 1.9719
 IR Inten    --    571.2206               231.5342               145.9035

                     58                     59                     60
                      A                      A                      A
 Frequencies --   1285.0701              1318.4517              1366.0654
 Red. masses --      1.1068                 1.3875                 1.5956
 Frc consts  --      1.0769                 1.4211                 1.7544
 IR Inten    --      5.7507                88.5113                11.9689

                     61                     62                     63
                      A                      A                      A
 Frequencies --   1378.6770              1395.5336              1411.8184
 Red. masses --      1.2595                 1.4802                 1.4297
 Frc consts  --      1.4106                 1.6985                 1.6790
 IR Inten    --      0.8308                43.5195                15.4369

                     64                     65                     66
                      A                      A                      A
 Frequencies --   1443.9553              1451.2791              1463.4639
 Red. masses --      1.1018                 1.0365                 1.1738
 Frc consts  --      1.3535                 1.2863                 1.4811
 IR Inten    --     27.6252                 7.0816                21.5930

                     67                     68                     69
                      A                      A                      A
 Frequencies --   1467.2297              1467.9624              1481.3333
 Red. masses --      1.4829                 1.0649                 1.0569
 Frc consts  --      1.8809                 1.3520                 1.3665
 IR Inten    --     34.6187                 4.2133                 4.3231

                     70                     71                     72
                      A                      A                      A
 Frequencies --   1488.8021              1500.2506              1543.0027
 Red. masses --      1.0955                 1.9032                 2.1360
 Frc consts  --      1.4307                 2.5238                 2.9963
 IR Inten    --     22.2325                26.9951               658.2831

                     73                     74                     75
                      A                      A                      A
 Frequencies --   1578.7073              1622.4139              1722.1592
 Red. masses --      3.3515                 3.0881                10.0629
 Frc consts  --      4.9214                 4.7892                17.5840
 IR Inten    --     10.1291                24.3513               559.3493

                     76                     77                     78
                      A                      A                      A
 Frequencies --   1790.6931              3042.7692              3043.0357
 Red. masses --      9.7096                 1.0356                 1.0299
 Frc consts  --     18.3440                 5.6492                 5.6190
 IR Inten    --    280.8697                22.7517                53.7248

                     79                     80                     81
                      A                      A                      A
 Frequencies --   3056.6116              3101.5291              3120.9505
 Red. masses --      1.0583                 1.1072                 1.0580
 Frc consts  --      5.8255                 6.2755                 6.0719
 IR Inten    --     21.8170                 4.9370                 7.0274

                     82                     83                     84
                      A                      A                      A
 Frequencies --   3122.7523              3128.1321              3129.2837
 Red. masses --      1.1021                 1.1065                 1.1056
 Frc consts  --      6.3318                 6.3791                 6.3786
 IR Inten    --     25.3496                18.5929                33.7382

                     85                     86                     87
                      A                      A                      A
 Frequencies --   3131.4240              3153.3983              3165.3614
 Red. masses --      1.0586                 1.1072                 1.0902
 Frc consts  --      6.1159                 6.4868                 6.4355
 IR Inten    --     17.4938                16.5389                 8.1817

                     88                     89                     90
                      A                      A                      A
 Frequencies --   3197.1090              3204.0180              3232.3196
 Red. masses --      1.0911                 1.1137                 1.1122
 Frc consts  --      6.5709                 6.7360                 6.8465
 IR Inten    --      5.4313                14.5558                 3.9793

                     91                     92                     93
                      A                      A                      A
 Frequencies --   3239.5293              3250.2731              3613.7274
 Red. masses --      1.0922                 1.0879                 1.0773
 Frc consts  --      6.7534                 6.7714                 8.2889
 IR Inten    --      7.0266                 0.1548                81.8618

 - Thermochemistry -
 -------------------
 Temperature   383.000 Kelvin.  Pressure   1.00000 Atm.
 Atom     1 has atomic number  6 and mass  12.00000

 Molecular mass:   227.11576 amu.
 Principal axes and moments of inertia in atomic units:
                           1         2         3
     Eigenvalues --  1946.577855323.325545930.12055
           X            0.99993  -0.01175  -0.00012
           Y            0.01173   0.99755   0.06890
           Z           -0.00069  -0.06889   0.99762
 This molecule is an asymmetric top.
 Rotational symmetry number  1.
 Warning -- assumption of classical behavior for rotation
           may cause significant error
 Rotational temperatures (Kelvin)      0.04450     0.01627     0.01461
 Rotational constants (GHZ):           0.92714     0.33903     0.30433
    1 imaginary frequencies ignored.
 Zero-point vibrational energy     714327.7 (Joules/Mol)
                                  170.72841 (Kcal/Mol)
 Warning -- explicit consideration of  31 degrees of freedom as
           vibrations may cause significant error
 Vibrational temperatures:     51.94    72.98    81.79   129.98   165.30
          (Kelvin)            175.81   178.88   210.74   250.87   271.24
                              282.37   296.23   337.93   362.30   380.66
                              414.14   501.77   506.71   559.71   579.61
                              609.72   671.44   747.66   786.38   862.80
                              918.79   933.11  1033.97  1083.24  1105.81
                             1133.68  1150.78  1173.23  1217.63  1244.57
                             1294.36  1316.11  1344.71  1370.27  1410.11
                             1439.83  1491.93  1522.80  1526.52  1560.84
                             1588.27  1597.23  1630.77  1679.03  1684.70
                             1724.86  1759.39  1783.10  1798.67  1837.25
                             1846.47  1848.93  1896.96  1965.46  1983.61
                             2007.86  2031.29  2077.53  2088.06  2105.60
                             2111.01  2112.07  2131.31  2142.05  2158.52
                             2220.03  2271.40  2334.29  2477.80  2576.40
                             4377.86  4378.24  4397.78  4462.40  4490.35
                             4492.94  4500.68  4502.34  4505.42  4537.03
                             4554.24  4599.92  4609.86  4650.58  4660.95
                             4676.41  5199.34

 Zero-point correction=                           0.272073 (Hartree/Particle)
 Thermal correction to Energy=                    0.298732
 Thermal correction to Enthalpy=                  0.299945
 Thermal correction to Gibbs Free Energy=         0.208062
 Sum of electronic and zero-point Energies=           -784.838729
 Sum of electronic and thermal Energies=              -784.812070
 Sum of electronic and thermal Enthalpies=            -784.810857
 Sum of electronic and thermal Free Energies=         -784.902741

                     E (Thermal)             CV                S
                      KCal/Mol        Cal/Mol-Kelvin    Cal/Mol-Kelvin
 Total                  187.457             77.991            150.542
 Electronic               0.000              0.000              0.000
 Translational            1.142              2.981             43.407
 Rotational               1.142              2.981             33.232
 Vibrational            185.174             72.029             73.902
 Vibration     1          0.762              1.984              5.959
 Vibration     2          0.763              1.981              5.285
 Vibration     3          0.764              1.980              5.059
 Vibration     4          0.768              1.968              4.144
 Vibration     5          0.773              1.957              3.672
 Vibration     6          0.774              1.953              3.552
 Vibration     7          0.775              1.951              3.518
 Vibration     8          0.780              1.938              3.199
 Vibration     9          0.788              1.918              2.863
 Vibration    10          0.793              1.906              2.714
 Vibration    11          0.795              1.900              2.637
 Vibration    12          0.799              1.891              2.547
 Vibration    13          0.810              1.863              2.299
 Vibration    14          0.817              1.845              2.170
 Vibration    15          0.823              1.831              2.079
 Vibration    16          0.834              1.804              1.926
 Vibration    17          0.867              1.726              1.587
 Vibration    18          0.869              1.721              1.570
 Vibration    19          0.892              1.668              1.401
 Vibration    20          0.901              1.648              1.343
 Vibration    21          0.915              1.616              1.261
 Vibration    22          0.947              1.548              1.108
 Vibration    23          0.989              1.460              0.946
 Vibration    24          1.011              1.415              0.874
 Vibration    25          1.059              1.324              0.746
 Vibration    26          1.095              1.256              0.665
 Vibration    27          1.105              1.239              0.646
 Vibration    28          1.175              1.119              0.525
 Vibration    29          1.212              1.061              0.474
 Vibration    30          1.228              1.035              0.453
 Vibration    31          1.250              1.004              0.427

 Normal termination of Gaussian 09 at Mon Mar 20 18:23:53 2017.
