 Gaussian 09, Revision D.01,
 Gaussian 09:  EM64L-G09RevD.01 24-Apr-2013

 ----------------------------------------------------------------------
 #p b3lyp empiricaldispersion=gd3bj cc-pVDZ scrf=(pcm,solvent=1,4-dioxa
 ne) opt=(ts,calcfc,maxstep=5,noeigentest) freq=noraman temperature=383
 ----------------------------------------------------------------------

 -------------------
 Title Card Required
 -------------------
 Symbolic Z-matrix:
 Charge =  0 Multiplicity = 1

 SCF Done:  E(RB3LYP) =  -785.104486911     A.U. after   14 cycles
 SCF Done:  E(RB3LYP) =  -785.106134140     A.U. after   10 cycles
 SCF Done:  E(RB3LYP) =  -785.107147124     A.U. after   10 cycles
 SCF Done:  E(RB3LYP) =  -785.107547298     A.U. after   10 cycles
 SCF Done:  E(RB3LYP) =  -785.107553904     A.U. after    8 cycles
 Optimization completed.
    -- Stationary point found.
 Normal termination of Gaussian 09 at Mon Mar 20 18:02:44 2017.

 -------------------------------------------------------------------
 #P Geom=AllCheck Guess=TCheck SCRF=Check GenChk RB3LYP/CC-pVDZ Freq
 -------------------------------------------------------------------

 Structure from the checkpoint file:  "/scratch/ekwan_da_ortho_exo_full-b3lyp_d3bj-dz-ts/Gau-10723.chk"
 -------------------
 Title Card Required
 -------------------
 Charge =  0 Multiplicity = 1

                         Standard orientation:
 ---------------------------------------------------------------------
 Center     Atomic      Atomic             Coordinates (Angstroms)
 Number     Number       Type             X           Y           Z
 ---------------------------------------------------------------------
      1          6           0       -0.299189    2.990533   -0.482345
      2          1           0       -0.021824    4.026998   -0.267166
      3          6           0       -1.645143    2.627249   -0.342293
      4          1           0       -2.379579    3.427017   -0.214425
      5          1           0       -2.032018    1.756555   -0.877636
      6          6           0        0.754104    2.073658   -0.626474
      7          1           0        1.782334    2.407488   -0.503777
      8          6           0        0.496996    0.715891   -0.735285
      9          1           0       -0.475835    0.383880   -1.088303
     10          7           0        1.405126   -0.323862   -0.675625
     11          1           0        0.988231   -1.242964   -0.518701
     12          6           0        2.733191   -0.215212   -0.309438
     13          8           0        3.374299    0.812593   -0.217290
     14          8           0        3.227016   -1.454491   -0.095411
     15          6           0       -0.901314    0.503421    1.410559
     16          1           0        0.067607    0.503808    1.906209
     17          6           0       -1.736523    1.629522    1.435177
     18          1           0       -1.462494    2.447181    2.104457
     19          1           0       -2.810116    1.466325    1.325626
     20          6           0       -1.290993   -0.770682    0.842968
     21          8           0       -0.598340   -1.788173    0.819182
     22          8           0       -2.512299   -0.723416    0.230454
     23          6           0       -2.949270   -1.943230   -0.401500
     24          1           0       -2.999023   -2.742021    0.355368
     25          1           0       -2.201202   -2.249164   -1.150732
     26          6           0        4.613500   -1.495794    0.274889
     27          1           0        4.780354   -0.948506    1.214299
     28          1           0        4.849662   -2.558481    0.402686
     29          1           0        5.239292   -1.052765   -0.513762
     30          6           0       -4.300162   -1.669001   -1.028089
     31          1           0       -4.677299   -2.578423   -1.521279
     32          1           0       -5.031184   -1.359952   -0.264891
     33          1           0       -4.229382   -0.870184   -1.783093
 ---------------------------------------------------------------------

 SCF Done:  E(RB3LYP) =  -785.107553904     A.U. after    1 cycles

 The electronic state is 1-A.
 Alpha  occ. eigenvalues --  -19.18873 -19.17409 -19.12885 -19.11423 -14.37873
 Alpha  occ. eigenvalues --  -10.34322 -10.30037 -10.25034 -10.24444 -10.24090
 Alpha  occ. eigenvalues --  -10.20459 -10.19883 -10.19826 -10.18752 -10.18735
 Alpha  occ. eigenvalues --  -10.18458  -1.11757  -1.08993  -1.02490  -0.99980
 Alpha  occ. eigenvalues --   -0.95478  -0.82063  -0.78832  -0.75722  -0.74878
 Alpha  occ. eigenvalues --   -0.70919  -0.65661  -0.64907  -0.61204  -0.59527
 Alpha  occ. eigenvalues --   -0.56431  -0.55634  -0.53721  -0.51119  -0.49209
 Alpha  occ. eigenvalues --   -0.48671  -0.48426  -0.47333  -0.46520  -0.44711
 Alpha  occ. eigenvalues --   -0.44562  -0.42988  -0.42541  -0.42142  -0.41198
 Alpha  occ. eigenvalues --   -0.39862  -0.39400  -0.38112  -0.37099  -0.36876
 Alpha  occ. eigenvalues --   -0.36704  -0.35753  -0.34912  -0.34603  -0.32412
 Alpha  occ. eigenvalues --   -0.30726  -0.29513  -0.28493  -0.26636  -0.24824
 Alpha  occ. eigenvalues --   -0.20508
 Alpha virt. eigenvalues --   -0.06020  -0.00690   0.04109   0.05058   0.06117
 Alpha virt. eigenvalues --    0.07440   0.07801   0.08540   0.09259   0.09709
 Alpha virt. eigenvalues --    0.10699   0.11347   0.12412   0.12582   0.12767

 Mulliken charges:
               1
     1  C    0.003797
     2  H   -0.009958
     3  C   -0.010218
     4  H    0.020762
     5  H    0.041085
     6  C    0.000260
     7  H   -0.001176
     8  C    0.036272
     9  H    0.036222
    10  N   -0.085119
    11  H    0.112507
    12  C    0.312185
    13  O   -0.287490
    14  O   -0.274054
    15  C   -0.101595
    16  H   -0.005428
    17  C    0.067112
    18  H    0.032596
    19  H    0.034206
    20  C    0.219872
    21  O   -0.331423
    22  O   -0.289608
    23  C    0.112563
    24  H    0.028699
    25  H    0.019159
    26  C    0.124638
    27  H    0.042442
    28  H    0.044097
    29  H    0.041467
    30  C   -0.023551
    31  H    0.027046
    32  H    0.032683
    33  H    0.029951
 Sum of Mulliken charges =   0.00000

 Dipole moment (field-independent basis, Debye):
    X=             -1.3074    Y=             -0.1311    Z=             -0.8434  Tot=              1.5613
 Quadrupole moment (field-independent basis, Debye-Ang):
   XX=            -83.3445   YY=            -92.3722   ZZ=            -96.1242
   XY=             -6.9394   XZ=              3.9774   YZ=              5.5153

  Exact polarizability: 216.534 -11.594 199.802 -12.508  -8.309 123.048
 Approx polarizability: 271.224 -15.490 296.552 -32.876 -25.096 188.673

 ******    1 imaginary frequencies (negative Signs) ******

                      1                      2                      3
                      A                      A                      A
 Frequencies --   -427.9140                28.2779                42.3046
 Red. masses --      9.3440                 3.8819                 3.8322
 Frc consts  --      1.0081                 0.0018                 0.0040
 IR Inten    --     66.9085                 0.8078                 0.9527

                      4                      5                      6
                      A                      A                      A
 Frequencies --     46.1943                58.0156                74.7470
 Red. masses --      4.3773                 4.7427                 2.7345
 Frc consts  --      0.0055                 0.0094                 0.0090
 IR Inten    --      0.2187                 5.3140                 1.7920

                      7                      8                      9
                      A                      A                      A
 Frequencies --    111.5090               117.9529               132.1399
 Red. masses --      1.6247                 2.8317                 2.8319
 Frc consts  --      0.0119                 0.0232                 0.0291
 IR Inten    --      1.2865                 0.1068                 5.6107

                     10                     11                     12
                      A                      A                      A
 Frequencies --    139.4036               163.4185               166.9751
 Red. masses --      2.8000                 3.7061                 4.6219
 Frc consts  --      0.0321                 0.0583                 0.0759
 IR Inten    --      0.7805                 3.1785                 1.4824

                     13                     14                     15
                      A                      A                      A
 Frequencies --    197.7694               231.7750               262.9459
 Red. masses --      5.0319                 3.2693                 1.7758
 Frc consts  --      0.1160                 0.1035                 0.0723
 IR Inten    --     26.2908                 1.4905                 3.2683

                     16                     17                     18
                      A                      A                      A
 Frequencies --    274.1631               296.0256               314.6080
 Red. masses --      1.9965                 4.5488                 3.4729
 Frc consts  --      0.0884                 0.2349                 0.2025
 IR Inten    --      1.0032                19.4945                 5.4736

                     19                     20                     21
                      A                      A                      A
 Frequencies --    374.4874               378.7482               389.1982
 Red. masses --      4.0802                 3.6842                 4.2709
 Frc consts  --      0.3371                 0.3114                 0.3812
 IR Inten    --      2.9040                16.1276                 9.5186

                     22                     23                     24
                      A                      A                      A
 Frequencies --    429.3932               480.5743               529.5039
 Red. masses --      3.1666                 2.6655                 2.9982
 Frc consts  --      0.3440                 0.3627                 0.4953
 IR Inten    --     15.9037                14.4931                 1.5556

                     25                     26                     27
                      A                      A                      A
 Frequencies --    564.0486               609.3751               625.3591
 Red. masses --      3.1907                 1.4752                 3.9854
 Frc consts  --      0.5981                 0.3227                 0.9183
 IR Inten    --      6.9976               138.5300                 2.0689

                     28                     29                     30
                      A                      A                      A
 Frequencies --    657.6053               717.9058               764.7780
 Red. masses --      2.8654                 1.8089                 2.4927
 Frc consts  --      0.7301                 0.5493                 0.8590
 IR Inten    --     19.9915                 4.9813                15.8869

                     31                     32                     33
                      A                      A                      A
 Frequencies --    769.0982               790.2799               803.9280
 Red. masses --      5.4070                 2.0944                 1.4546
 Frc consts  --      1.8844                 0.7707                 0.5539
 IR Inten    --     65.7291                29.9604                31.0632

                     34                     35                     36
                      A                      A                      A
 Frequencies --    813.0015               860.0490               880.2524
 Red. masses --      1.5977                 2.2269                 1.4661
 Frc consts  --      0.6222                 0.9705                 0.6693
 IR Inten    --     15.0089                34.6910                29.6823

                     37                     38                     39
                      A                      A                      A
 Frequencies --    896.3689               920.0230               946.3677
 Red. masses --      1.5525                 1.5961                 2.2293
 Frc consts  --      0.7349                 0.7960                 1.1764
 IR Inten    --      3.7807                60.2034                23.5447

                     40                     41                     42
                      A                      A                      A
 Frequencies --    957.8141               983.3095              1012.8032
 Red. masses --      1.8049                 1.7445                 1.1902
 Frc consts  --      0.9756                 0.9938                 0.7193
 IR Inten    --     23.1373                44.5255                 3.2084

                     43                     44                     45
                      A                      A                      A
 Frequencies --   1038.8608              1045.9141              1055.1663
 Red. masses --      2.8447                 1.6233                 1.4378
 Frc consts  --      1.8088                 1.0463                 0.9432
 IR Inten    --     54.0335                12.5123                10.8393

                     46                     47                     48
                      A                      A                      A
 Frequencies --   1083.3037              1093.2518              1106.8322
 Red. masses --      1.5261                 2.6454                 1.6758
 Frc consts  --      1.0552                 1.8629                 1.2096
 IR Inten    --     74.7483               288.5828                12.0663

                     49                     50                     51
                      A                      A                      A
 Frequencies --   1129.3553              1162.1060              1165.7270
 Red. masses --      2.2297                 1.2780                 1.5580
 Frc consts  --      1.6756                 1.0169                 1.2474
 IR Inten    --     10.1644                 0.8174                 4.1591

                     52                     53                     54
                      A                      A                      A
 Frequencies --   1194.7745              1230.5428              1235.2408
 Red. masses --      1.4965                 1.7186                 1.6070
 Frc consts  --      1.2586                 1.5332                 1.4447
 IR Inten    --     53.2055               175.9079               109.9043

                     55                     56                     57
                      A                      A                      A
 Frequencies --   1252.5251              1272.1468              1275.3888
 Red. masses --      4.2384                 2.8964                 1.3705
 Frc consts  --      3.9176                 2.7618                 1.3135
 IR Inten    --    833.0597               452.5695                 0.2135

                     58                     59                     60
                      A                      A                      A
 Frequencies --   1277.7835              1326.4306              1365.7010
 Red. masses --      1.1090                 1.4459                 1.5432
 Frc consts  --      1.0668                 1.4988                 1.6959
 IR Inten    --      4.1539                85.6390                10.2010

                     61                     62                     63
                      A                      A                      A
 Frequencies --   1370.5958              1398.1410              1420.7398
 Red. masses --      1.3090                 1.3919                 1.6437
 Frc consts  --      1.4488                 1.6031                 1.9548
 IR Inten    --      0.4656                58.7269                62.0780

                     64                     65                     66
                      A                      A                      A
 Frequencies --   1447.7606              1448.4603              1451.9963
 Red. masses --      1.1161                 1.0825                 1.0372
 Frc consts  --      1.3783                 1.3381                 1.2883
 IR Inten    --      6.0791                 6.8214                 7.0127

                     67                     68                     69
                      A                      A                      A
 Frequencies --   1465.5333              1467.5089              1471.1072
 Red. masses --      1.0574                 1.1421                 1.3713
 Frc consts  --      1.3381                 1.4492                 1.7486
 IR Inten    --      2.8729                45.9594                 5.9658

                     70                     71                     72
                      A                      A                      A
 Frequencies --   1493.6871              1499.6373              1562.1838
 Red. masses --      1.1164                 1.7911                 2.0403
 Frc consts  --      1.4676                 2.3732                 2.9336
 IR Inten    --      8.6098                33.8938               897.8342

                     73                     74                     75
                      A                      A                      A
 Frequencies --   1578.4167              1618.6102              1707.6013
 Red. masses --      3.0941                 3.0636                 9.6352
 Frc consts  --      4.5419                 4.7290                16.5534
 IR Inten    --     14.4074                26.3499               519.3570

                     76                     77                     78
                      A                      A                      A
 Frequencies --   1801.9329              3039.9754              3045.5147
 Red. masses --      9.6248                 1.0363                 1.0583
 Frc consts  --     18.4128                 5.6425                 5.7836
 IR Inten    --    313.7889                22.0851                24.9709

                     79                     80                     81
                      A                      A                      A
 Frequencies --   3050.0495              3085.5451              3119.5340
 Red. masses --      1.0309                 1.1069                 1.1022
 Frc consts  --      5.6502                 6.2090                 6.3195
 IR Inten    --     47.1339                13.8513                34.6993

                     82                     83                     84
                      A                      A                      A
 Frequencies --   3121.8461              3122.5245              3130.9346
 Red. masses --      1.0579                 1.1035                 1.1075
 Frc consts  --      6.0749                 6.3393                 6.3964
 IR Inten    --      7.2509                34.1009                22.0589

                     85                     86                     87
                      A                      A                      A
 Frequencies --   3137.5327              3160.7731              3172.0936
 Red. masses --      1.0567                 1.0899                 1.1066
 Frc consts  --      6.1290                 6.4154                 6.5603
 IR Inten    --     10.8487                11.8091                14.1037

                     88                     89                     90
                      A                      A                      A
 Frequencies --   3205.7726              3219.3476              3232.3406
 Red. masses --      1.1142                 1.0999                 1.0928
 Frc consts  --      6.7464                 6.7166                 6.7273
 IR Inten    --     12.9110                 4.0679                 6.2938

                     91                     92                     93
                      A                      A                      A
 Frequencies --   3234.8256              3241.5236              3499.2445
 Red. masses --      1.1065                 1.0878                 1.0776
 Frc consts  --      6.8216                 6.7342                 7.7741
 IR Inten    --      4.0813                 0.1006                85.9095

 - Thermochemistry -
 -------------------
 Temperature   383.000 Kelvin.  Pressure   1.00000 Atm.
 Atom     1 has atomic number  6 and mass  12.00000

 Molecular mass:   227.11576 amu.
 Principal axes and moments of inertia in atomic units:
                           1         2         3
     Eigenvalues --  2530.782175609.551837218.05522
           X            0.99991  -0.00425   0.01303
           Y            0.00397   0.99977   0.02085
           Z           -0.01312  -0.02080   0.99970
 This molecule is an asymmetric top.
 Rotational symmetry number  1.
 Warning -- assumption of classical behavior for rotation
           may cause significant error
 Rotational temperatures (Kelvin)      0.03422     0.01544     0.01200
 Rotational constants (GHZ):           0.71312     0.32173     0.25003
    1 imaginary frequencies ignored.
 Zero-point vibrational energy     712656.4 (Joules/Mol)
                                  170.32896 (Kcal/Mol)
 Warning -- explicit consideration of  31 degrees of freedom as
           vibrations may cause significant error
 Vibrational temperatures:     40.69    60.87    66.46    83.47   107.54
          (Kelvin)            160.44   169.71   190.12   200.57   235.12
                              240.24   284.55   333.47   378.32   394.46
                              425.91   452.65   538.80   544.93   559.97
                              617.80   691.44   761.84   811.54   876.75
                              899.75   946.15  1032.90  1100.34  1106.56
                             1137.04  1156.67  1169.73  1237.42  1266.49
                             1289.67  1323.71  1361.61  1378.08  1414.76
                             1457.20  1494.69  1504.84  1518.15  1558.63
                             1572.94  1592.48  1624.89  1672.01  1677.22
                             1719.01  1770.47  1777.23  1802.10  1830.33
                             1835.00  1838.44  1908.44  1964.94  1971.98
                             2011.61  2044.13  2083.00  2084.01  2089.10
                             2108.57  2111.42  2116.59  2149.08  2157.64
                             2247.63  2270.99  2328.82  2456.85  2592.58
                             4373.84  4381.81  4388.34  4439.41  4488.31
                             4491.63  4492.61  4504.71  4514.20  4547.64
                             4563.93  4612.39  4631.92  4650.61  4654.19
                             4663.82  5034.63

 Zero-point correction=                           0.271436 (Hartree/Particle)
 Thermal correction to Energy=                    0.298474
 Thermal correction to Enthalpy=                  0.299687
 Thermal correction to Gibbs Free Energy=         0.204834
 Sum of electronic and zero-point Energies=           -784.836117
 Sum of electronic and thermal Energies=              -784.809080
 Sum of electronic and thermal Enthalpies=            -784.807867
 Sum of electronic and thermal Free Energies=         -784.902720

                     E (Thermal)             CV                S
                      KCal/Mol        Cal/Mol-Kelvin    Cal/Mol-Kelvin
 Total                  187.295             77.999            155.408
 Electronic               0.000              0.000              0.000
 Translational            1.142              2.981             43.407
 Rotational               1.142              2.981             33.740
 Vibrational            185.012             72.037             78.260
 Vibration     1          0.762              1.985              6.444
 Vibration     2          0.763              1.983              5.644
 Vibration     3          0.763              1.982              5.470
 Vibration     4          0.764              1.979              5.019
 Vibration     5          0.766              1.974              4.518
 Vibration     6          0.772              1.958              3.731
 Vibration     7          0.774              1.955              3.621
 Vibration     8          0.777              1.947              3.399
 Vibration     9          0.778              1.942              3.295
 Vibration    10          0.785              1.926              2.988
 Vibration    11          0.786              1.923              2.946
 Vibration    12          0.796              1.898              2.623
 Vibration    13          0.809              1.866              2.324
 Vibration    14          0.822              1.833              2.091
 Vibration    15          0.827              1.820              2.014
 Vibration    16          0.838              1.794              1.875
 Vibration    17          0.848              1.771              1.767
 Vibration    18          0.883              1.690              1.465
 Vibration    19          0.885              1.683              1.446
 Vibration    20          0.892              1.668              1.400
 Vibration    21          0.919              1.607              1.239
 Vibration    22          0.957              1.525              1.063
 Vibration    23          0.997              1.444              0.919
 Vibration    24          1.027              1.385              0.829
 Vibration    25          1.068              1.307              0.725
 Vibration    26          1.083              1.279              0.692
 Vibration    27          1.114              1.224              0.629
 Vibration    28          1.175              1.120              0.526
 Vibration    29          1.224              1.042              0.458
 Vibration    30          1.229              1.035              0.452
 Vibration    31          1.252              1.000              0.424

 Optimization completed.
    -- Stationary point found.
 Normal termination of Gaussian 09 at Mon Mar 20 18:17:48 2017.
